 Entering Gaussian System, Link 0=g09
 Initial command:
 /u/local/G09/g09/l1.exe /tmp/marlin/22992.mallos00.local/Gau-2060.inp -scrdir=/tmp/marlin/22992.mallos00.local/
 Entering Link 1 = /u/local/G09/g09/l1.exe PID=      2062.
  
 Copyright (c) 1988,1990,1992,1993,1995,1998,2003,2009, Gaussian, Inc.
                  All Rights Reserved.
  
 This is part of the Gaussian(R) 09 program.  It is based on
 the Gaussian(R) 03 system (copyright 2003, Gaussian, Inc.),
 the Gaussian(R) 98 system (copyright 1998, Gaussian, Inc.),
 the Gaussian(R) 94 system (copyright 1995, Gaussian, Inc.),
 the Gaussian 92(TM) system (copyright 1992, Gaussian, Inc.),
 the Gaussian 90(TM) system (copyright 1990, Gaussian, Inc.),
 the Gaussian 88(TM) system (copyright 1988, Gaussian, Inc.),
 the Gaussian 86(TM) system (copyright 1986, Carnegie Mellon
 University), and the Gaussian 82(TM) system (copyright 1983,
 Carnegie Mellon University). Gaussian is a federally registered
 trademark of Gaussian, Inc.
  
 This software contains proprietary and confidential information,
 including trade secrets, belonging to Gaussian, Inc.
  
 This software is provided under written license and may be
 used, copied, transmitted, or stored only in accord with that
 written license.
  
 The following legend is applicable only to US Government
 contracts under FAR:
  
                    RESTRICTED RIGHTS LEGEND
  
 Use, reproduction and disclosure by the US Government is
 subject to restrictions as set forth in subparagraphs (a)
 and (c) of the Commercial Computer Software - Restricted
 Rights clause in FAR 52.227-19.
  
 Gaussian, Inc.
 340 Quinnipiac St., Bldg. 40, Wallingford CT 06492
  
  
 ---------------------------------------------------------------
 Warning -- This program may not be used in any manner that
 competes with the business of Gaussian, Inc. or will provide
 assistance to any competitor of Gaussian, Inc.  The licensee
 of this program is prohibited from giving any competitor of
 Gaussian, Inc. access to this program.  By using this program,
 the user acknowledges that Gaussian, Inc. is engaged in the
 business of creating and licensing software in the field of
 computational chemistry and represents and warrants to the
 licensee that it is not a competitor of Gaussian, Inc. and that
 it will not use this program in any manner prohibited above.
 ---------------------------------------------------------------
  

 Cite this work as:
 Gaussian 09, Revision A.01,
 M. J. Frisch, G. W. Trucks, H. B. Schlegel, G. E. Scuseria, 
 M. A. Robb, J. R. Cheeseman, G. Scalmani, V. Barone, B. Mennucci, 
 G. A. Petersson, H. Nakatsuji, M. Caricato, X. Li, H. P. Hratchian, 
 A. F. Izmaylov, J. Bloino, G. Zheng, J. L. Sonnenberg, M. Hada, 
 M. Ehara, K. Toyota, R. Fukuda, J. Hasegawa, M. Ishida, T. Nakajima, 
 Y. Honda, O. Kitao, H. Nakai, T. Vreven, J. A. Montgomery, Jr., 
 J. E. Peralta, F. Ogliaro, M. Bearpark, J. J. Heyd, E. Brothers, 
 K. N. Kudin, V. N. Staroverov, R. Kobayashi, J. Normand, 
 K. Raghavachari, A. Rendell, J. C. Burant, S. S. Iyengar, J. Tomasi, 
 M. Cossi, N. Rega, J. M. Millam, M. Klene, J. E. Knox, J. B. Cross, 
 V. Bakken, C. Adamo, J. Jaramillo, R. Gomperts, R. E. Stratmann, 
 O. Yazyev, A. J. Austin, R. Cammi, C. Pomelli, J. W. Ochterski, 
 R. L. Martin, K. Morokuma, V. G. Zakrzewski, G. A. Voth, 
 P. Salvador, J. J. Dannenberg, S. Dapprich, A. D. Daniels, 
 O. Farkas, J. B. Foresman, J. V. Ortiz, J. Cioslowski, 
 and D. J. Fox, Gaussian, Inc., Wallingford CT, 2009.
 
 ******************************************
 Gaussian 09:  EM64L-G09RevA.01  8-May-2009
                26-Oct-2024 
 ******************************************
 %mem=103GB
 %nproc=20
 Will use up to   20 processors via shared memory.
 %chk=1-base1.chk
 ---------------------------------------------
 # opt freq=noraman hf/6-31G geom=connectivity
 ---------------------------------------------
 1/18=20,19=15,38=1,57=2/1,3;
 2/9=110,12=2,17=6,18=5,40=1/2;
 3/5=1,6=6,11=9,16=1,25=1,30=1,71=1/1,2,3;
 4//1;
 5/5=2,38=5/2;
 6/7=2,8=2,9=2,10=2,28=1/1;
 7//1,2,3,16;
 1/18=20,19=15/3(2);
 2/9=110/2;
 99//99;
 2/9=110/2;
 3/5=1,6=6,11=9,16=1,25=1,30=1,71=1/1,2,3;
 4/5=5,16=3/1;
 5/5=2,38=5/2;
 7//1,2,3,16;
 1/18=20,19=15/3(-5);
 2/9=110/2;
 6/7=2,8=2,9=2,10=2,19=2,28=1/1;
 99/9=1/99;
 -------------------
 Title Card Required
 -------------------
 Symbolic Z-matrix:
 Charge =  0 Multiplicity = 1
 C                    -2.1124   -1.70543   0. 
 C                    -1.43713  -0.53045   0. 
 H                    -1.97029   0.39726   0. 
 C                     0.10287  -0.53045   0. 
 H                     0.63603  -1.45815   0. 
 C                     0.78511   0.6405    0. 
 H                     0.25747   1.57135   0. 
 H                     1.8551    0.63414   0. 
 F                    -3.4624   -1.70543   0. 
 Cl                   -1.23542  -3.23137   0. 
 

 GradGradGradGradGradGradGradGradGradGradGradGradGradGradGradGradGradGrad
 Berny optimization.
 Initialization pass.
                           ----------------------------
                           !    Initial Parameters    !
                           ! (Angstroms and Degrees)  !
 --------------------------                            --------------------------
 ! Name  Definition              Value          Derivative Info.                !
 --------------------------------------------------------------------------------
 ! R1    R(1,2)                  1.3552         estimate D2E/DX2                !
 ! R2    R(1,9)                  1.35           estimate D2E/DX2                !
 ! R3    R(1,10)                 1.76           estimate D2E/DX2                !
 ! R4    R(2,3)                  1.07           estimate D2E/DX2                !
 ! R5    R(2,4)                  1.54           estimate D2E/DX2                !
 ! R6    R(4,5)                  1.07           estimate D2E/DX2                !
 ! R7    R(4,6)                  1.3552         estimate D2E/DX2                !
 ! R8    R(6,7)                  1.07           estimate D2E/DX2                !
 ! R9    R(6,8)                  1.07           estimate D2E/DX2                !
 ! A1    A(2,1,9)              119.8865         estimate D2E/DX2                !
 ! A2    A(2,1,10)             120.2269         estimate D2E/DX2                !
 ! A3    A(9,1,10)             119.8865         estimate D2E/DX2                !
 ! A4    A(1,2,3)              120.2269         estimate D2E/DX2                !
 ! A5    A(1,2,4)              119.8865         estimate D2E/DX2                !
 ! A6    A(3,2,4)              119.8865         estimate D2E/DX2                !
 ! A7    A(2,4,5)              119.8865         estimate D2E/DX2                !
 ! A8    A(2,4,6)              120.2269         estimate D2E/DX2                !
 ! A9    A(5,4,6)              119.8865         estimate D2E/DX2                !
 ! A10   A(4,6,7)              120.2269         estimate D2E/DX2                !
 ! A11   A(4,6,8)              119.8865         estimate D2E/DX2                !
 ! A12   A(7,6,8)              119.8865         estimate D2E/DX2                !
 ! D1    D(9,1,2,3)              0.0            estimate D2E/DX2                !
 ! D2    D(9,1,2,4)            180.0            estimate D2E/DX2                !
 ! D3    D(10,1,2,3)           180.0            estimate D2E/DX2                !
 ! D4    D(10,1,2,4)             0.0            estimate D2E/DX2                !
 ! D5    D(1,2,4,5)              0.0            estimate D2E/DX2                !
 ! D6    D(1,2,4,6)            180.0            estimate D2E/DX2                !
 ! D7    D(3,2,4,5)            180.0            estimate D2E/DX2                !
 ! D8    D(3,2,4,6)              0.0            estimate D2E/DX2                !
 ! D9    D(2,4,6,7)              0.0            estimate D2E/DX2                !
 ! D10   D(2,4,6,8)            180.0            estimate D2E/DX2                !
 ! D11   D(5,4,6,7)            180.0            estimate D2E/DX2                !
 ! D12   D(5,4,6,8)              0.0            estimate D2E/DX2                !
 --------------------------------------------------------------------------------
 Trust Radius=3.00D-01 FncErr=1.00D-07 GrdErr=1.00D-07
 Number of steps in this run=  43 maximum allowed number of steps= 100.
 GradGradGradGradGradGradGradGradGradGradGradGradGradGradGradGradGradGrad

                          Input orientation:                          
 ---------------------------------------------------------------------
 Center     Atomic      Atomic             Coordinates (Angstroms)
 Number     Number       Type             X           Y           Z
 ---------------------------------------------------------------------
      1          6           0       -2.112403   -1.705426    0.000000
      2          6           0       -1.437129   -0.530449    0.000000
      3          1           0       -1.970293    0.397256    0.000000
      4          6           0        0.102871   -0.530449    0.000000
      5          1           0        0.636035   -1.458154    0.000000
      6          6           0        0.785114    0.640495    0.000000
      7          1           0        0.257472    1.571352    0.000000
      8          1           0        1.855096    0.634138    0.000000
      9          9           0       -3.462403   -1.705426    0.000000
     10         17           0       -1.235424   -3.231371    0.000000
 ---------------------------------------------------------------------
                    Distance matrix (angstroms):
                    1          2          3          4          5
     1  C    0.000000
     2  C    1.355200   0.000000
     3  H    2.107479   1.070000   0.000000
     4  C    2.507591   1.540000   2.271265   0.000000
     5  H    2.759539   2.271265   3.199295   1.070000   0.000000
     6  C    3.728131   2.511867   2.766123   1.355200   2.103938
     7  H    4.043956   2.699859   2.518221   2.107479   3.053066
     8  H    4.605932   3.492135   3.832716   2.103938   2.421527
     9  F    1.350000   2.341433   2.578307   3.753898   4.105891
    10  Cl   1.760000   2.708443   3.702292   3.014301   2.578111
                    6          7          8          9         10
     6  C    0.000000
     7  H    1.070000   0.000000
     8  H    1.070000   1.852234   0.000000
     9  F    4.852294   4.957292   5.809420   0.000000
    10  Cl   4.367370   5.029402   4.949088   2.699619   0.000000
 Stoichiometry    C4H4ClF
 Framework group  CS[SG(C4H4ClF)]
 Deg. of freedom    17
 Full point group                 CS      NOp   2
 Largest Abelian subgroup         CS      NOp   2
 Largest concise Abelian subgroup C1      NOp   1
                         Standard orientation:                         
 ---------------------------------------------------------------------
 Center     Atomic      Atomic             Coordinates (Angstroms)
 Number     Number       Type             X           Y           Z
 ---------------------------------------------------------------------
      1          6           0        0.188898   -0.865092    0.000000
      2          6           0       -0.986079   -0.189818    0.000000
      3          1           0       -1.913784   -0.722982    0.000000
      4          6           0       -0.986079    1.350182    0.000000
      5          1           0       -0.058374    1.883346    0.000000
      6          6           0       -2.157024    2.032426    0.000000
      7          1           0       -3.087880    1.504783    0.000000
      8          1           0       -2.150666    3.102407    0.000000
      9          9           0        0.188898   -2.215092    0.000000
     10         17           0        1.714843    0.011888    0.000000
 ---------------------------------------------------------------------
 Rotational constants (GHZ):      4.6033621      1.8043003      1.2962368
 Standard basis: 6-31G (6D, 7F)
 There are    53 symmetry adapted basis functions of A'  symmetry.
 There are    13 symmetry adapted basis functions of A"  symmetry.
 Integral buffers will be    131072 words long.
 Raffenetti 1 integral format.
 Two-electron integral symmetry is turned on.
    66 basis functions,   172 primitive gaussians,    66 cartesian basis functions
    27 alpha electrons       27 beta electrons
       nuclear repulsion energy       260.5614655646 Hartrees.
 NAtoms=   10 NActive=   10 NUniq=   10 SFac= 7.50D-01 NAtFMM=   80 NAOKFM=F Big=F
 One-electron integrals computed using PRISM.
 NBasis=    66 RedAO= T  NBF=    53    13
 NBsUse=    66 1.00D-06 NBFU=    53    13
 Harris functional with IExCor=  205 diagonalized for initial guess.
 ExpMin= 1.43D-01 ExpMax= 2.52D+04 ExpMxC= 3.78D+03 IAcc=1 IRadAn=         1 AccDes= 0.00D+00
 HarFok:  IExCor=  205 AccDes= 0.00D+00 IRadAn=         1 IDoV= 1
 ScaDFX=  1.000000  1.000000  1.000000  1.000000
 FoFCou: FMM=F IPFlag=           0 FMFlag=      100000 FMFlg1=           0
         NFxFlg=           0 DoJE=T BraDBF=F KetDBF=T FulRan=T
         Omega=  0.000000  0.000000  1.000000  0.000000  0.000000 ICntrl=     500 IOpCl=  0
         NMat0=    1 NMatS0=    1 NMatT0=    0 NMatD0=    1 NMtDS0=    0 NMtDT0=    0
         I1Cent=           4 NGrid=           0.
 Petite list used in FoFCou.
 Initial guess orbital symmetries:
       Occupied  (A') (A') (A') (A') (A') (A') (A') (A') (A') (A")
                 (A') (A') (A') (A') (A') (A') (A') (A') (A') (A')
                 (A") (A') (A') (A") (A") (A') (A")
       Virtual   (A") (A") (A') (A') (A') (A') (A') (A') (A') (A')
                 (A') (A') (A') (A") (A') (A") (A') (A') (A") (A')
                 (A') (A") (A') (A") (A') (A') (A') (A') (A') (A')
                 (A') (A') (A') (A") (A') (A') (A') (A') (A')
 The electronic state of the initial guess is 1-A'.
 Requested convergence on RMS density matrix=1.00D-08 within 128 cycles.
 Requested convergence on MAX density matrix=1.00D-06.
 Requested convergence on             energy=1.00D-06.
 No special actions if energy rises.
 Keep R1 ints in memory in canonical form, NReq=3278450.
 SCF Done:  E(RHF) =  -712.538505673     A.U. after   14 cycles
             Convg  =    0.6336D-08             -V/T =  1.9999

 **********************************************************************

            Population analysis using the SCF density.

 **********************************************************************

 Orbital symmetries:
       Occupied  (A') (A') (A') (A') (A') (A') (A') (A') (A') (A")
                 (A') (A') (A') (A') (A') (A') (A') (A') (A") (A')
                 (A') (A') (A') (A") (A') (A") (A")
       Virtual   (A") (A') (A") (A') (A') (A') (A') (A') (A') (A')
                 (A') (A') (A") (A') (A') (A") (A') (A') (A") (A')
                 (A') (A") (A") (A') (A') (A') (A') (A') (A') (A')
                 (A') (A') (A') (A') (A") (A') (A') (A') (A')
 The electronic state is 1-A'.
 Alpha  occ. eigenvalues -- -104.85103 -26.33491 -11.40842 -11.28648 -11.27069
 Alpha  occ. eigenvalues --  -11.25129 -10.59245  -8.06095  -8.05661  -8.05635
 Alpha  occ. eigenvalues --   -1.65115  -1.18469  -1.08822  -1.01341  -0.84044
 Alpha  occ. eigenvalues --   -0.78387  -0.72505  -0.71535  -0.71257  -0.63641
 Alpha  occ. eigenvalues --   -0.59667  -0.55937  -0.52964  -0.52532  -0.48596
 Alpha  occ. eigenvalues --   -0.43808  -0.33689
 Alpha virt. eigenvalues --    0.10182   0.17776   0.21938   0.24909   0.26134
 Alpha virt. eigenvalues --    0.30590   0.31673   0.35028   0.47139   0.49669
 Alpha virt. eigenvalues --    0.51930   0.59052   0.62180   0.62782   0.69786
 Alpha virt. eigenvalues --    0.75527   0.76156   0.78925   0.79107   0.81979
 Alpha virt. eigenvalues --    0.86116   0.88686   0.89712   0.93963   1.02620
 Alpha virt. eigenvalues --    1.12411   1.14779   1.18416   1.19770   1.23894
 Alpha virt. eigenvalues --    1.27392   1.32109   1.40221   1.52281   1.56483
 Alpha virt. eigenvalues --    1.60265   1.67600   1.76504   2.46376
          Condensed to atoms (all electrons):
              1          2          3          4          5          6
     1  C    5.167786   0.449262  -0.033970  -0.025834  -0.001285   0.001990
     2  C    0.449262   5.250028   0.391997   0.311771  -0.030155  -0.054175
     3  H   -0.033970   0.391997   0.429715  -0.023374   0.001106   0.000118
     4  C   -0.025834   0.311771  -0.023374   5.020008   0.395596   0.573706
     5  H   -0.001285  -0.030155   0.001106   0.395596   0.449709  -0.031153
     6  C    0.001990  -0.054175   0.000118   0.573706  -0.031153   5.070577
     7  H    0.000180  -0.001716   0.001433  -0.050170   0.002252   0.400439
     8  H   -0.000124   0.002486   0.000064  -0.037791  -0.001440   0.391598
     9  F    0.138094  -0.044209  -0.002385   0.001698   0.000035  -0.000035
    10  Cl   0.176847  -0.112808   0.001470   0.000721  -0.004330   0.001372
              7          8          9         10
     1  C    0.000180  -0.000124   0.138094   0.176847
     2  C   -0.001716   0.002486  -0.044209  -0.112808
     3  H    0.001433   0.000064  -0.002385   0.001470
     4  C   -0.050170  -0.037791   0.001698   0.000721
     5  H    0.002252  -0.001440   0.000035  -0.004330
     6  C    0.400439   0.391598  -0.000035   0.001372
     7  H    0.494177  -0.020627   0.000000  -0.000006
     8  H   -0.020627   0.484905   0.000000  -0.000017
     9  F    0.000000   0.000000   9.336062  -0.030611
    10  Cl  -0.000006  -0.000017  -0.030611  16.820989
 Mulliken atomic charges:
              1
     1  C    0.127053
     2  C   -0.162480
     3  H    0.233824
     4  C   -0.166331
     5  H    0.219664
     6  C   -0.354438
     7  H    0.174037
     8  H    0.180947
     9  F   -0.398649
    10  Cl   0.146373
 Sum of Mulliken atomic charges =   0.00000
 Mulliken charges with hydrogens summed into heavy atoms:
              1
     1  C    0.127053
     2  C    0.071344
     4  C    0.053333
     6  C    0.000546
     9  F   -0.398649
    10  Cl   0.146373
 Sum of Mulliken charges with hydrogens summed into heavy atoms =   0.00000
 Electronic spatial extent (au):  <R**2>=            838.4024
 Charge=              0.0000 electrons
 Dipole moment (field-independent basis, Debye):
    X=             -1.7844    Y=              1.7936    Z=              0.0000  Tot=              2.5301
 Quadrupole moment (field-independent basis, Debye-Ang):
   XX=            -38.8255   YY=            -43.0424   ZZ=            -44.4014
   XY=              0.4720   XZ=              0.0000   YZ=              0.0000
 Traceless Quadrupole moment (field-independent basis, Debye-Ang):
   XX=              3.2643   YY=             -0.9527   ZZ=             -2.3116
   XY=              0.4720   XZ=              0.0000   YZ=              0.0000
 Octapole moment (field-independent basis, Debye-Ang**2):
  XXX=             -3.1542  YYY=              5.4641  ZZZ=              0.0000  XYY=             -1.3691
  XXY=             -2.2896  XXZ=              0.0000  XZZ=              6.3915  YZZ=             -9.0261
  YYZ=              0.0000  XYZ=              0.0000
 Hexadecapole moment (field-independent basis, Debye-Ang**3):
 XXXX=           -505.6046 YYYY=           -457.1494 ZZZZ=            -45.7519 XXXY=            116.0595
 XXXZ=              0.0000 YYYX=            105.3140 YYYZ=              0.0000 ZZZX=              0.0000
 ZZZY=              0.0000 XXYY=           -155.4448 XXZZ=           -106.6516 YYZZ=            -90.4878
 XXYZ=              0.0000 YYXZ=              0.0000 ZZXY=             44.2613
 N-N= 2.605614655646D+02 E-N=-2.210816216838D+03  KE= 7.126008341768D+02
 Symmetry A'   KE= 6.562265837797D+02
 Symmetry A"   KE= 5.637425039711D+01
 Calling FoFJK, ICntrl=      2127 FMM=F ISym2X=1 I1Cent= 0 IOpClX= 0 NMat=1 NMatS=1 NMatT=0.
 ***** Axes restored to original set *****
 -------------------------------------------------------------------
 Center     Atomic                   Forces (Hartrees/Bohr)
 Number     Number              X              Y              Z
 -------------------------------------------------------------------
      1        6           0.036449400    0.071775258    0.000000000
      2        6           0.028511003   -0.056477952    0.000000000
      3        1          -0.000626596   -0.000176604    0.000000000
      4        6          -0.023659953    0.049652439    0.000000000
      5        1          -0.004048938    0.000010515    0.000000000
      6        6          -0.020760334   -0.038378406    0.000000000
      7        1           0.003570049    0.004515236    0.000000000
      8        1           0.001188444    0.004495351    0.000000000
      9        9          -0.004456480   -0.016027460    0.000000000
     10       17          -0.016166595   -0.019388377    0.000000000
 -------------------------------------------------------------------
 Cartesian Forces:  Max     0.071775258 RMS     0.023379131

 GradGradGradGradGradGradGradGradGradGradGradGradGradGradGradGradGradGrad
 Berny optimization.
 Internal  Forces:  Max     0.043710732 RMS     0.016957876
 Search for a local minimum.
 Step number   1 out of a maximum of   43
 All quantities printed in internal units (Hartrees-Bohrs-Radians)
 Mixed Optimization -- RFO/linear search
 Second derivative matrix not updated -- first step.
     Eigenvalues ---    0.00237   0.01459   0.01463   0.02681   0.02681
     Eigenvalues ---    0.02681   0.02681   0.16000   0.16000   0.16000
     Eigenvalues ---    0.16000   0.22000   0.22000   0.25000   0.25000
     Eigenvalues ---    0.28519   0.29539   0.37230   0.37230   0.37230
     Eigenvalues ---    0.37230   0.53930   0.53930   0.550211000.00000
     Eigenvalues --- 1000.000001000.000001000.000001000.000001000.00000
     Eigenvalues --- 1000.000001000.000001000.00000
 RFO step:  Lambda=-2.91275302D-02 EMin= 2.36824121D-03
 Linear search not attempted -- first point.
 Maximum step size (   0.300) exceeded in Quadratic search.
    -- Step size scaled by   0.964
 Iteration  1 RMS(Cart)=  0.12452636 RMS(Int)=  0.01049856
 Iteration  2 RMS(Cart)=  0.01155156 RMS(Int)=  0.00005408
 Iteration  3 RMS(Cart)=  0.00010237 RMS(Int)=  0.00000001
 Iteration  4 RMS(Cart)=  0.00000001 RMS(Int)=  0.00000000
 ClnCor:  largest displacement from symmetrization is 3.14D-16 for atom     6.
 Variable       Old X    -DE/DX   Delta X   Delta X   Delta X     New X
                                 (Linear)    (Quad)   (Total)
    R1        2.56096  -0.03941   0.00000  -0.06687  -0.06687   2.49409
    R2        2.55113   0.00446   0.00000   0.00742   0.00742   2.55855
    R3        3.32592   0.00875   0.00000   0.02602   0.02602   3.35194
    R4        2.02201   0.00016   0.00000   0.00038   0.00038   2.02239
    R5        2.91018  -0.04371   0.00000  -0.13412  -0.13412   2.77606
    R6        2.02201  -0.00203   0.00000  -0.00487  -0.00487   2.01714
    R7        2.56096  -0.03343   0.00000  -0.05672  -0.05672   2.50424
    R8        2.02201   0.00217   0.00000   0.00521   0.00521   2.02721
    R9        2.02201   0.00116   0.00000   0.00279   0.00279   2.02480
    A1        2.09241   0.00101   0.00000   0.00349   0.00349   2.09590
    A2        2.09836   0.03887   0.00000   0.13430   0.13430   2.23266
    A3        2.09241  -0.03988   0.00000  -0.13779  -0.13779   1.95462
    A4        2.09836  -0.01680   0.00000  -0.06581  -0.06581   2.03254
    A5        2.09241   0.03232   0.00000   0.12512   0.12512   2.21754
    A6        2.09241  -0.01552   0.00000  -0.05931  -0.05931   2.03311
    A7        2.09241  -0.00610   0.00000  -0.02798  -0.02798   2.06444
    A8        2.09836   0.00512   0.00000   0.01981   0.01981   2.11817
    A9        2.09241   0.00099   0.00000   0.00817   0.00817   2.10058
   A10        2.09836   0.00415   0.00000   0.02118   0.02118   2.11954
   A11        2.09241   0.00248   0.00000   0.01262   0.01262   2.10504
   A12        2.09241  -0.00663   0.00000  -0.03380  -0.03380   2.05861
    D1        0.00000   0.00000   0.00000   0.00000   0.00000   0.00000
    D2        3.14159   0.00000   0.00000   0.00000   0.00000   3.14159
    D3        3.14159   0.00000   0.00000   0.00000   0.00000   3.14159
    D4        0.00000   0.00000   0.00000   0.00000   0.00000   0.00000
    D5        0.00000   0.00000   0.00000   0.00000   0.00000   0.00000
    D6        3.14159   0.00000   0.00000   0.00000   0.00000   3.14159
    D7        3.14159   0.00000   0.00000   0.00000   0.00000   3.14159
    D8        0.00000   0.00000   0.00000   0.00000   0.00000   0.00000
    D9        0.00000   0.00000   0.00000   0.00000   0.00000   0.00000
   D10        3.14159   0.00000   0.00000   0.00000   0.00000   3.14159
   D11        3.14159   0.00000   0.00000   0.00000   0.00000   3.14159
   D12        0.00000   0.00000   0.00000   0.00000   0.00000   0.00000
         Item               Value     Threshold  Converged?
 Maximum Force            0.043711     0.000450     NO 
 RMS     Force            0.016958     0.000300     NO 
 Maximum Displacement     0.479516     0.001800     NO 
 RMS     Displacement     0.128722     0.001200     NO 
 Predicted change in Energy=-1.585609D-02
 GradGradGradGradGradGradGradGradGradGradGradGradGradGradGradGradGradGrad

                          Input orientation:                          
 ---------------------------------------------------------------------
 Center     Atomic      Atomic             Coordinates (Angstroms)
 Number     Number       Type             X           Y           Z
 ---------------------------------------------------------------------
      1          6           0       -2.059435   -1.703022    0.000000
      2          6           0       -1.334356   -0.600220    0.000000
      3          1           0       -1.873004    0.324546    0.000000
      4          6           0        0.131557   -0.504628    0.000000
      5          1           0        0.697435   -1.409711    0.000000
      6          6           0        0.746147    0.669422    0.000000
      7          1           0        0.194786    1.589643    0.000000
      8          1           0        1.816177    0.725099    0.000000
      9          9           0       -3.411199   -1.626543    0.000000
     10         17           0       -1.489173   -3.382621    0.000000
 ---------------------------------------------------------------------
                    Distance matrix (angstroms):
                    1          2          3          4          5
     1  C    0.000000
     2  C    1.319816   0.000000
     3  H    2.036121   1.070202   0.000000
     4  C    2.497318   1.469026   2.169284   0.000000
     5  H    2.772429   2.187110   3.100774   1.067423   0.000000
     6  C    3.674205   2.437311   2.641759   1.325184   2.079703
     7  H    3.990383   2.670912   2.424093   2.095225   3.041180
     8  H    4.573417   3.417941   3.710862   2.085706   2.410186
     9  F    1.353926   2.316596   2.484510   3.716156   4.114352
    10  Cl   1.773768   2.786705   3.726984   3.302970   2.945103
                    6          7          8          9         10
     6  C    0.000000
     7  H    1.072756   0.000000
     8  H    1.071477   1.837482   0.000000
     9  F    4.749209   4.831872   5.731987   0.000000
    10  Cl   4.627711   5.249679   5.272448   2.603458   0.000000
 Stoichiometry    C4H4ClF
 Framework group  CS[SG(C4H4ClF)]
 Deg. of freedom    17
 Full point group                 CS      NOp   2
 Largest Abelian subgroup         CS      NOp   2
 Largest concise Abelian subgroup C1      NOp   1
                         Standard orientation:                         
 ---------------------------------------------------------------------
 Center     Atomic      Atomic             Coordinates (Angstroms)
 Number     Number       Type             X           Y           Z
 ---------------------------------------------------------------------
      1          6           0        0.000000    0.773122    0.000000
      2          6           0       -0.938483   -0.154867    0.000000
      3          1           0       -1.951191    0.191192    0.000000
      4          6           0       -0.743624   -1.610912    0.000000
      5          1           0        0.255146   -1.987542    0.000000
      6          6           0       -1.773711   -2.444599    0.000000
      7          1           0       -2.784466   -2.085183    0.000000
      8          1           0       -1.617653   -3.504651    0.000000
      9          9           0       -0.341091    2.083379    0.000000
     10         17           0        1.758994    0.544666    0.000000
 ---------------------------------------------------------------------
 Rotational constants (GHZ):      5.0262508      1.6753959      1.2565509
 Standard basis: 6-31G (6D, 7F)
 There are    53 symmetry adapted basis functions of A'  symmetry.
 There are    13 symmetry adapted basis functions of A"  symmetry.
 Integral buffers will be    131072 words long.
 Raffenetti 1 integral format.
 Two-electron integral symmetry is turned on.
    66 basis functions,   172 primitive gaussians,    66 cartesian basis functions
    27 alpha electrons       27 beta electrons
       nuclear repulsion energy       260.3082528582 Hartrees.
 NAtoms=   10 NActive=   10 NUniq=   10 SFac= 7.50D-01 NAtFMM=   80 NAOKFM=F Big=F
 One-electron integrals computed using PRISM.
 NBasis=    66 RedAO= T  NBF=    53    13
 NBsUse=    66 1.00D-06 NBFU=    53    13
 Initial guess read from the read-write file.
 B after Tr=     0.000000    0.000000    0.000000
         Rot=    1.000000    0.000000    0.000000    0.000000 Ang=   0.00 deg.
 Initial guess orbital symmetries:
       Occupied  (A') (A') (A') (A') (A') (A') (A') (A') (A') (A")
                 (A') (A') (A') (A') (A') (A') (A') (A') (A") (A')
                 (A') (A') (A') (A") (A') (A") (A")
       Virtual   (A") (A') (A") (A') (A') (A') (A') (A') (A') (A')
                 (A') (A') (A") (A') (A') (A") (A') (A') (A") (A')
                 (A') (A") (A") (A') (A') (A') (A') (A') (A') (A')
                 (A') (A') (A') (A') (A") (A') (A') (A') (A')
 Harris functional with IExCor=  205 diagonalized for initial guess.
 ExpMin= 1.43D-01 ExpMax= 2.52D+04 ExpMxC= 3.78D+03 IAcc=1 IRadAn=         1 AccDes= 0.00D+00
 HarFok:  IExCor=  205 AccDes= 0.00D+00 IRadAn=         1 IDoV= 1
 ScaDFX=  1.000000  1.000000  1.000000  1.000000
 FoFCou: FMM=F IPFlag=           0 FMFlag=      100000 FMFlg1=           0
         NFxFlg=           0 DoJE=T BraDBF=F KetDBF=T FulRan=T
         Omega=  0.000000  0.000000  1.000000  0.000000  0.000000 ICntrl=     500 IOpCl=  0
         NMat0=    1 NMatS0=    1 NMatT0=    0 NMatD0=    1 NMtDS0=    0 NMtDT0=    0
         I1Cent=           4 NGrid=           0.
 Petite list used in FoFCou.
 Requested convergence on RMS density matrix=1.00D-08 within 128 cycles.
 Requested convergence on MAX density matrix=1.00D-06.
 Requested convergence on             energy=1.00D-06.
 No special actions if energy rises.
 Keep R1 ints in memory in canonical form, NReq=3278450.
 SCF Done:  E(RHF) =  -712.552755202     A.U. after   15 cycles
             Convg  =    0.5319D-08             -V/T =  1.9996
 Calling FoFJK, ICntrl=      2127 FMM=F ISym2X=1 I1Cent= 0 IOpClX= 0 NMat=1 NMatS=1 NMatT=0.
 ***** Axes restored to original set *****
 -------------------------------------------------------------------
 Center     Atomic                   Forces (Hartrees/Bohr)
 Number     Number              X              Y              Z
 -------------------------------------------------------------------
      1        6           0.010596252    0.012735203    0.000000000
      2        6           0.007234391   -0.010850231    0.000000000
      3        1          -0.003641773    0.000755704    0.000000000
      4        6          -0.011777495    0.002521974    0.000000000
      5        1           0.001466620   -0.004245668    0.000000000
      6        6           0.002617226   -0.002499562    0.000000000
      7        1           0.001797354    0.001810944    0.000000000
      8        1           0.000105184    0.002822387    0.000000000
      9        9          -0.007803398   -0.003814560    0.000000000
     10       17          -0.000594361    0.000763809    0.000000000
 -------------------------------------------------------------------
 Cartesian Forces:  Max     0.012735203 RMS     0.004924683

 GradGradGradGradGradGradGradGradGradGradGradGradGradGradGradGradGradGrad
 Berny optimization.
 Using GEDIIS/GDIIS optimizer.
 Internal  Forces:  Max     0.009299875 RMS     0.003393618
 Search for a local minimum.
 Step number   2 out of a maximum of   43
 All quantities printed in internal units (Hartrees-Bohrs-Radians)
 Mixed Optimization -- RFO/linear search
 Update second derivatives using D2CorX and points    1    2
 DE= -1.42D-02 DEPred=-1.59D-02 R= 8.99D-01
 SS=  1.41D+00  RLast= 3.00D-01 DXNew= 5.0454D-01 9.0000D-01
 Trust test= 8.99D-01 RLast= 3.00D-01 DXMaxT set to 5.05D-01
 Use linear search instead of GDIIS.
     Eigenvalues ---    0.00237   0.01459   0.01484   0.02681   0.02681
     Eigenvalues ---    0.02681   0.02681   0.15640   0.16000   0.16000
     Eigenvalues ---    0.16030   0.21393   0.22878   0.24095   0.27355
     Eigenvalues ---    0.28978   0.30197   0.37221   0.37230   0.37230
     Eigenvalues ---    0.37607   0.51862   0.54552   0.566071000.00000
     Eigenvalues --- 1000.000001000.000001000.000001000.000001000.00000
     Eigenvalues --- 1000.000001000.000001000.00000
 RFO step:  Lambda=-1.28972689D-03 EMin= 2.36824121D-03
 Quartic linear search produced a step of  0.05224.
 Iteration  1 RMS(Cart)=  0.02980729 RMS(Int)=  0.00041817
 Iteration  2 RMS(Cart)=  0.00048364 RMS(Int)=  0.00000007
 Iteration  3 RMS(Cart)=  0.00000012 RMS(Int)=  0.00000000
 ClnCor:  largest displacement from symmetrization is 1.24D-11 for atom     9.
 Variable       Old X    -DE/DX   Delta X   Delta X   Delta X     New X
                                 (Linear)    (Quad)   (Total)
    R1        2.49409  -0.00930  -0.00349  -0.01757  -0.02107   2.47302
    R2        2.55855   0.00758   0.00039   0.01439   0.01478   2.57333
    R3        3.35194  -0.00091   0.00136  -0.00345  -0.00209   3.34985
    R4        2.02239   0.00249   0.00002   0.00700   0.00702   2.02941
    R5        2.77606  -0.00575  -0.00701  -0.02007  -0.02707   2.74898
    R6        2.01714   0.00438  -0.00025   0.01237   0.01211   2.02925
    R7        2.50424   0.00399  -0.00296   0.00820   0.00524   2.50948
    R8        2.02721   0.00063   0.00027   0.00173   0.00200   2.02922
    R9        2.02480   0.00025   0.00015   0.00069   0.00083   2.02563
    A1        2.09590   0.00689   0.00018   0.02883   0.02902   2.12492
    A2        2.23266  -0.00292   0.00702  -0.01326  -0.00625   2.22641
    A3        1.95462  -0.00398  -0.00720  -0.01557  -0.02277   1.93186
    A4        2.03254  -0.00149  -0.00344  -0.01152  -0.01496   2.01758
    A5        2.21754  -0.00261   0.00654  -0.01341  -0.00687   2.21066
    A6        2.03311   0.00410  -0.00310   0.02492   0.02183   2.05494
    A7        2.06444  -0.00364  -0.00146  -0.01890  -0.02036   2.04408
    A8        2.11817   0.00525   0.00103   0.02482   0.02586   2.14403
    A9        2.10058  -0.00161   0.00043  -0.00593  -0.00550   2.09508
   A10        2.11954   0.00144   0.00111   0.00924   0.01035   2.12989
   A11        2.10504   0.00213   0.00066   0.01377   0.01443   2.11947
   A12        2.05861  -0.00357  -0.00177  -0.02301  -0.02478   2.03383
    D1        0.00000   0.00000   0.00000   0.00000   0.00000   0.00000
    D2        3.14159   0.00000   0.00000   0.00000   0.00000   3.14159
    D3        3.14159   0.00000   0.00000   0.00000   0.00000   3.14159
    D4        0.00000   0.00000   0.00000   0.00000   0.00000   0.00000
    D5        0.00000   0.00000   0.00000   0.00000   0.00000   0.00000
    D6        3.14159   0.00000   0.00000   0.00000   0.00000   3.14159
    D7        3.14159   0.00000   0.00000   0.00000   0.00000   3.14159
    D8        0.00000   0.00000   0.00000   0.00000   0.00000   0.00000
    D9        0.00000   0.00000   0.00000   0.00000   0.00000   0.00000
   D10        3.14159   0.00000   0.00000   0.00000   0.00000   3.14159
   D11        3.14159   0.00000   0.00000   0.00000   0.00000   3.14159
   D12        0.00000   0.00000   0.00000   0.00000   0.00000   0.00000
         Item               Value     Threshold  Converged?
 Maximum Force            0.009300     0.000450     NO 
 RMS     Force            0.003394     0.000300     NO 
 Maximum Displacement     0.078187     0.001800     NO 
 RMS     Displacement     0.029964     0.001200     NO 
 Predicted change in Energy=-6.721011D-04
 GradGradGradGradGradGradGradGradGradGradGradGradGradGradGradGradGradGrad

                          Input orientation:                          
 ---------------------------------------------------------------------
 Center     Atomic      Atomic             Coordinates (Angstroms)
 Number     Number       Type             X           Y           Z
 ---------------------------------------------------------------------
      1          6           0       -2.052208   -1.690673    0.000000
      2          6           0       -1.341639   -0.591719    0.000000
      3          1           0       -1.902994    0.323801    0.000000
      4          6           0        0.109904   -0.495929    0.000000
      5          1           0        0.661245   -1.417416    0.000000
      6          6           0        0.755091    0.664763    0.000000
      7          1           0        0.236161    1.604866    0.000000
      8          1           0        1.826093    0.709058    0.000000
      9          9           0       -3.413687   -1.663641    0.000000
     10         17           0       -1.459029   -3.361144    0.000000
 ---------------------------------------------------------------------
                    Distance matrix (angstroms):
                    1          2          3          4          5
     1  C    0.000000
     2  C    1.308667   0.000000
     3  H    2.019993   1.073916   0.000000
     4  C    2.470251   1.454700   2.173410   0.000000
     5  H    2.727177   2.166407   3.099541   1.073832   0.000000
     6  C    3.664561   2.444385   2.679863   1.327957   2.084292
     7  H    4.012133   2.704521   2.493414   2.104585   3.052029
     8  H    4.560694   3.424404   3.748934   2.096974   2.424616
     9  F    1.361747   2.332896   2.496421   3.712040   4.082364
    10  Cl   1.772663   2.771912   3.711593   3.266651   2.876394
                    6          7          8          9         10
     6  C    0.000000
     7  H    1.073816   0.000000
     8  H    1.071918   1.824926   0.000000
     9  F    4.774953   4.899442   5.751956   0.000000
    10  Cl   4.594589   5.247373   5.230542   2.588861   0.000000
 Stoichiometry    C4H4ClF
 Framework group  CS[SG(C4H4ClF)]
 Deg. of freedom    17
 Full point group                 CS      NOp   2
 Largest Abelian subgroup         CS      NOp   2
 Largest concise Abelian subgroup C1      NOp   1
                         Standard orientation:                         
 ---------------------------------------------------------------------
 Center     Atomic      Atomic             Coordinates (Angstroms)
 Number     Number       Type             X           Y           Z
 ---------------------------------------------------------------------
      1          6           0        0.000000    0.771519    0.000000
      2          6           0       -0.948186   -0.130453    0.000000
      3          1           0       -1.951898    0.251458    0.000000
      4          6           0       -0.773236   -1.574594    0.000000
      5          1           0        0.234485   -1.945559    0.000000
      6          6           0       -1.794208   -2.423762    0.000000
      7          1           0       -2.814214   -2.088098    0.000000
      8          1           0       -1.639199   -3.484412    0.000000
      9          9           0       -0.278948    2.104390    0.000000
     10         17           0        1.751478    0.498285    0.000000
 ---------------------------------------------------------------------
 Rotational constants (GHZ):      5.0567501      1.6875964      1.2653195
 Standard basis: 6-31G (6D, 7F)
 There are    53 symmetry adapted basis functions of A'  symmetry.
 There are    13 symmetry adapted basis functions of A"  symmetry.
 Integral buffers will be    131072 words long.
 Raffenetti 1 integral format.
 Two-electron integral symmetry is turned on.
    66 basis functions,   172 primitive gaussians,    66 cartesian basis functions
    27 alpha electrons       27 beta electrons
       nuclear repulsion energy       260.9652353274 Hartrees.
 NAtoms=   10 NActive=   10 NUniq=   10 SFac= 7.50D-01 NAtFMM=   80 NAOKFM=F Big=F
 One-electron integrals computed using PRISM.
 NBasis=    66 RedAO= T  NBF=    53    13
 NBsUse=    66 1.00D-06 NBFU=    53    13
 Initial guess read from the read-write file.
 B after Tr=     0.000000    0.000000    0.000000
         Rot=    1.000000    0.000000    0.000000    0.000000 Ang=   0.00 deg.
 Initial guess orbital symmetries:
       Occupied  (A') (A') (A') (A') (A') (A') (A') (A') (A') (A")
                 (A') (A') (A') (A') (A') (A') (A') (A') (A") (A')
                 (A') (A') (A') (A") (A') (A") (A")
       Virtual   (A") (A') (A") (A') (A') (A') (A') (A') (A') (A')
                 (A') (A') (A') (A") (A') (A") (A') (A') (A") (A')
                 (A') (A") (A") (A') (A') (A') (A') (A') (A') (A')
                 (A') (A') (A') (A') (A") (A') (A') (A') (A')
 Harris functional with IExCor=  205 diagonalized for initial guess.
 ExpMin= 1.43D-01 ExpMax= 2.52D+04 ExpMxC= 3.78D+03 IAcc=1 IRadAn=         1 AccDes= 0.00D+00
 HarFok:  IExCor=  205 AccDes= 0.00D+00 IRadAn=         1 IDoV= 1
 ScaDFX=  1.000000  1.000000  1.000000  1.000000
 FoFCou: FMM=F IPFlag=           0 FMFlag=      100000 FMFlg1=           0
         NFxFlg=           0 DoJE=T BraDBF=F KetDBF=T FulRan=T
         Omega=  0.000000  0.000000  1.000000  0.000000  0.000000 ICntrl=     500 IOpCl=  0
         NMat0=    1 NMatS0=    1 NMatT0=    0 NMatD0=    1 NMtDS0=    0 NMtDT0=    0
         I1Cent=           4 NGrid=           0.
 Petite list used in FoFCou.
 Requested convergence on RMS density matrix=1.00D-08 within 128 cycles.
 Requested convergence on MAX density matrix=1.00D-06.
 Requested convergence on             energy=1.00D-06.
 No special actions if energy rises.
 Keep R1 ints in memory in canonical form, NReq=3278450.
 SCF Done:  E(RHF) =  -712.553293106     A.U. after   11 cycles
             Convg  =    0.8899D-08             -V/T =  1.9995
 Calling FoFJK, ICntrl=      2127 FMM=F ISym2X=1 I1Cent= 0 IOpClX= 0 NMat=1 NMatS=1 NMatT=0.
 ***** Axes restored to original set *****
 -------------------------------------------------------------------
 Center     Atomic                   Forces (Hartrees/Bohr)
 Number     Number              X              Y              Z
 -------------------------------------------------------------------
      1        6          -0.003594894   -0.005281408    0.000000000
      2        6          -0.000761293    0.006037523    0.000000000
      3        1          -0.000359193    0.000076237    0.000000000
      4        6           0.003755756    0.000753699    0.000000000
      5        1           0.000395150    0.000549131    0.000000000
      6        6          -0.000198738   -0.001795099    0.000000000
      7        1          -0.000013735    0.000290153    0.000000000
      8        1          -0.000072416    0.000025631    0.000000000
      9        9           0.000149042    0.000805300    0.000000000
     10       17           0.000700320   -0.001461165    0.000000000
 -------------------------------------------------------------------
 Cartesian Forces:  Max     0.006037523 RMS     0.001823572

 GradGradGradGradGradGradGradGradGradGradGradGradGradGradGradGradGradGrad
 Berny optimization.
 Using GEDIIS/GDIIS optimizer.
 Internal  Forces:  Max     0.006476578 RMS     0.001414038
 Search for a local minimum.
 Step number   3 out of a maximum of   43
 All quantities printed in internal units (Hartrees-Bohrs-Radians)
 Mixed Optimization -- RFO/linear search
 Update second derivatives using D2CorX and points    1    2    3
 DE= -5.38D-04 DEPred=-6.72D-04 R= 8.00D-01
 SS=  1.41D+00  RLast= 7.63D-02 DXNew= 8.4853D-01 2.2881D-01
 Trust test= 8.00D-01 RLast= 7.63D-02 DXMaxT set to 5.05D-01
 Use linear search instead of GDIIS.
     Eigenvalues ---    0.00237   0.01436   0.01493   0.02681   0.02681
     Eigenvalues ---    0.02681   0.02681   0.14790   0.16000   0.16017
     Eigenvalues ---    0.16112   0.20645   0.22748   0.24753   0.27870
     Eigenvalues ---    0.29948   0.31408   0.37126   0.37230   0.37234
     Eigenvalues ---    0.37440   0.53620   0.55750   0.636571000.00000
     Eigenvalues --- 1000.000001000.000001000.000001000.000001000.00000
     Eigenvalues --- 1000.000001000.000001000.00000
 RFO step:  Lambda=-7.87568410D-05 EMin= 2.36824121D-03
 Quartic linear search produced a step of -0.17040.
 Iteration  1 RMS(Cart)=  0.00534999 RMS(Int)=  0.00000497
 Iteration  2 RMS(Cart)=  0.00000667 RMS(Int)=  0.00000000
 Iteration  3 RMS(Cart)=  0.00000000 RMS(Int)=  0.00000000
 ClnCor:  largest displacement from symmetrization is 2.10D-12 for atom     1.
 Variable       Old X    -DE/DX   Delta X   Delta X   Delta X     New X
                                 (Linear)    (Quad)   (Total)
    R1        2.47302   0.00648   0.00359   0.00577   0.00936   2.48238
    R2        2.57333  -0.00013  -0.00252   0.00262   0.00010   2.57343
    R3        3.34985   0.00161   0.00036   0.00401   0.00437   3.35422
    R4        2.02941   0.00025  -0.00120   0.00189   0.00070   2.03010
    R5        2.74898   0.00385   0.00461   0.00571   0.01032   2.75931
    R6        2.02925  -0.00027  -0.00206   0.00174  -0.00032   2.02892
    R7        2.50948  -0.00143  -0.00089  -0.00109  -0.00198   2.50750
    R8        2.02922   0.00026  -0.00034   0.00095   0.00061   2.02983
    R9        2.02563  -0.00007  -0.00014   0.00000  -0.00014   2.02549
    A1        2.12492  -0.00120  -0.00494   0.00172  -0.00323   2.12169
    A2        2.22641   0.00031   0.00106  -0.00015   0.00092   2.22733
    A3        1.93186   0.00088   0.00388  -0.00157   0.00231   1.93417
    A4        2.01758   0.00007   0.00255  -0.00305  -0.00051   2.01708
    A5        2.21066  -0.00069   0.00117  -0.00377  -0.00260   2.20806
    A6        2.05494   0.00062  -0.00372   0.00683   0.00311   2.05804
    A7        2.04408   0.00038   0.00347  -0.00171   0.00176   2.04584
    A8        2.14403   0.00050  -0.00441   0.00684   0.00244   2.14646
    A9        2.09508  -0.00088   0.00094  -0.00513  -0.00420   2.09088
   A10        2.12989   0.00015  -0.00176   0.00283   0.00106   2.13095
   A11        2.11947  -0.00005  -0.00246   0.00258   0.00012   2.11959
   A12        2.03383  -0.00011   0.00422  -0.00540  -0.00118   2.03265
    D1        0.00000   0.00000   0.00000   0.00000   0.00000   0.00000
    D2        3.14159   0.00000   0.00000   0.00000   0.00000   3.14159
    D3        3.14159   0.00000   0.00000   0.00000   0.00000   3.14159
    D4        0.00000   0.00000   0.00000   0.00000   0.00000   0.00000
    D5        0.00000   0.00000   0.00000   0.00000   0.00000   0.00000
    D6        3.14159   0.00000   0.00000   0.00000   0.00000   3.14159
    D7        3.14159   0.00000   0.00000   0.00000   0.00000   3.14159
    D8        0.00000   0.00000   0.00000   0.00000   0.00000   0.00000
    D9        0.00000   0.00000   0.00000   0.00000   0.00000   0.00000
   D10        3.14159   0.00000   0.00000   0.00000   0.00000   3.14159
   D11        3.14159   0.00000   0.00000   0.00000   0.00000   3.14159
   D12        0.00000   0.00000   0.00000   0.00000   0.00000   0.00000
         Item               Value     Threshold  Converged?
 Maximum Force            0.006477     0.000450     NO 
 RMS     Force            0.001414     0.000300     NO 
 Maximum Displacement     0.013572     0.001800     NO 
 RMS     Displacement     0.005348     0.001200     NO 
 Predicted change in Energy=-6.327478D-05
 GradGradGradGradGradGradGradGradGradGradGradGradGradGradGradGradGradGrad

                          Input orientation:                          
 ---------------------------------------------------------------------
 Center     Atomic      Atomic             Coordinates (Angstroms)
 Number     Number       Type             X           Y           Z
 ---------------------------------------------------------------------
      1          6           0       -2.055838   -1.694443    0.000000
      2          6           0       -1.345634   -0.589361    0.000000
      3          1           0       -1.910176    0.324631    0.000000
      4          6           0        0.111343   -0.492969    0.000000
      5          1           0        0.664371   -1.413244    0.000000
      6          6           0        0.758651    0.665341    0.000000
      7          1           0        0.242701    1.607449    0.000000
      8          1           0        1.829672    0.707332    0.000000
      9          9           0       -3.417358   -1.666780    0.000000
     10         17           0       -1.458796   -3.365992    0.000000
 ---------------------------------------------------------------------
                    Distance matrix (angstroms):
                    1          2          3          4          5
     1  C    0.000000
     2  C    1.313619   0.000000
     3  H    2.024321   1.074285   0.000000
     4  C    2.477945   1.460162   2.180598   0.000000
     5  H    2.734704   2.172304   3.106204   1.073661   0.000000
     6  C    3.672863   2.449957   2.690487   1.326910   2.080723
     7  H    4.023155   2.710864   2.506093   2.104521   3.049983
     8  H    4.567900   3.429866   3.759378   2.096038   2.419663
     9  F    1.361801   2.335138   2.497462   3.718811   4.089595
    10  Cl   1.774975   2.778936   3.718123   3.274079   2.884624
                    6          7          8          9         10
     6  C    0.000000
     7  H    1.074137   0.000000
     8  H    1.071844   1.824469   0.000000
     9  F    4.783078   4.910866   5.759143   0.000000
    10  Cl   4.600947   5.256444   5.235072   2.592930   0.000000
 Stoichiometry    C4H4ClF
 Framework group  CS[SG(C4H4ClF)]
 Deg. of freedom    17
 Full point group                 CS      NOp   2
 Largest Abelian subgroup         CS      NOp   2
 Largest concise Abelian subgroup C1      NOp   1
                         Standard orientation:                         
 ---------------------------------------------------------------------
 Center     Atomic      Atomic             Coordinates (Angstroms)
 Number     Number       Type             X           Y           Z
 ---------------------------------------------------------------------
      1          6           0        0.000000    0.774765    0.000000
      2          6           0       -0.952537   -0.129817    0.000000
      3          1           0       -1.956079    0.253580    0.000000
      4          6           0       -0.774385   -1.579070    0.000000
      5          1           0        0.233173   -1.949980    0.000000
      6          6           0       -1.790986   -2.431836    0.000000
      7          1           0       -2.813047   -2.101437    0.000000
      8          1           0       -1.631671   -3.491774    0.000000
      9          9           0       -0.282137    2.107019    0.000000
     10         17           0        1.753783    0.501305    0.000000
 ---------------------------------------------------------------------
 Rotational constants (GHZ):      5.0373490      1.6817903      1.2608408
 Standard basis: 6-31G (6D, 7F)
 There are    53 symmetry adapted basis functions of A'  symmetry.
 There are    13 symmetry adapted basis functions of A"  symmetry.
 Integral buffers will be    131072 words long.
 Raffenetti 1 integral format.
 Two-electron integral symmetry is turned on.
    66 basis functions,   172 primitive gaussians,    66 cartesian basis functions
    27 alpha electrons       27 beta electrons
       nuclear repulsion energy       260.5404437009 Hartrees.
 NAtoms=   10 NActive=   10 NUniq=   10 SFac= 7.50D-01 NAtFMM=   80 NAOKFM=F Big=F
 One-electron integrals computed using PRISM.
 NBasis=    66 RedAO= T  NBF=    53    13
 NBsUse=    66 1.00D-06 NBFU=    53    13
 Initial guess read from the read-write file.
 B after Tr=     0.000000    0.000000    0.000000
         Rot=    1.000000    0.000000    0.000000    0.000000 Ang=   0.00 deg.
 Initial guess orbital symmetries:
       Occupied  (A') (A') (A') (A') (A') (A') (A') (A') (A') (A")
                 (A') (A') (A') (A') (A') (A') (A') (A') (A") (A')
                 (A') (A') (A') (A") (A') (A") (A")
       Virtual   (A") (A') (A") (A') (A') (A') (A') (A') (A') (A')
                 (A') (A') (A') (A") (A') (A") (A') (A') (A") (A')
                 (A') (A") (A") (A') (A') (A') (A') (A') (A') (A')
                 (A') (A') (A') (A') (A") (A') (A') (A') (A')
 Requested convergence on RMS density matrix=1.00D-08 within 128 cycles.
 Requested convergence on MAX density matrix=1.00D-06.
 Requested convergence on             energy=1.00D-06.
 No special actions if energy rises.
 Keep R1 ints in memory in canonical form, NReq=3278450.
 SCF Done:  E(RHF) =  -712.553351849     A.U. after   10 cycles
             Convg  =    0.6160D-08             -V/T =  1.9996
 Calling FoFJK, ICntrl=      2127 FMM=F ISym2X=1 I1Cent= 0 IOpClX= 0 NMat=1 NMatS=1 NMatT=0.
 ***** Axes restored to original set *****
 -------------------------------------------------------------------
 Center     Atomic                   Forces (Hartrees/Bohr)
 Number     Number              X              Y              Z
 -------------------------------------------------------------------
      1        6           0.000276016    0.000057785    0.000000000
      2        6          -0.000269970    0.000289207    0.000000000
      3        1           0.000042503   -0.000135404    0.000000000
      4        6          -0.000126600   -0.000494228    0.000000000
      5        1          -0.000160203    0.000057671    0.000000000
      6        6          -0.000332997   -0.000045068    0.000000000
      7        1           0.000033255    0.000086600    0.000000000
      8        1          -0.000001927   -0.000067403    0.000000000
      9        9           0.000358586    0.000314027    0.000000000
     10       17           0.000181338   -0.000063187    0.000000000
 -------------------------------------------------------------------
 Cartesian Forces:  Max     0.000494228 RMS     0.000176599

 GradGradGradGradGradGradGradGradGradGradGradGradGradGradGradGradGradGrad
 Berny optimization.
 Using GEDIIS/GDIIS optimizer.
 Internal  Forces:  Max     0.000700766 RMS     0.000258045
 Search for a local minimum.
 Step number   4 out of a maximum of   43
 All quantities printed in internal units (Hartrees-Bohrs-Radians)
 Mixed Optimization -- En-DIIS/RFO-DIIS
 Update second derivatives using D2CorX and points    1    2    3    4
 DE= -5.87D-05 DEPred=-6.33D-05 R= 9.28D-01
 SS=  1.41D+00  RLast= 1.68D-02 DXNew= 8.4853D-01 5.0251D-02
 Trust test= 9.28D-01 RLast= 1.68D-02 DXMaxT set to 5.05D-01
 Use linear search instead of GDIIS.
     Eigenvalues ---    0.00237   0.01434   0.01489   0.02681   0.02681
     Eigenvalues ---    0.02681   0.02681   0.14679   0.15985   0.16019
     Eigenvalues ---    0.16195   0.20726   0.22218   0.24544   0.27820
     Eigenvalues ---    0.30668   0.32617   0.37136   0.37229   0.37271
     Eigenvalues ---    0.37508   0.53978   0.56835   0.697451000.00000
     Eigenvalues --- 1000.000001000.000001000.000001000.000001000.00000
     Eigenvalues --- 1000.000001000.000001000.00000
 RFO step:  Lambda=-5.95559616D-06 EMin= 2.36824121D-03
 Quartic linear search produced a step of -0.06226.
 Iteration  1 RMS(Cart)=  0.00223711 RMS(Int)=  0.00000123
 Iteration  2 RMS(Cart)=  0.00000171 RMS(Int)=  0.00000000
 Iteration  3 RMS(Cart)=  0.00000000 RMS(Int)=  0.00000000
 ClnCor:  largest displacement from symmetrization is 9.36D-13 for atom     8.
 Variable       Old X    -DE/DX   Delta X   Delta X   Delta X     New X
                                 (Linear)    (Quad)   (Total)
    R1        2.48238  -0.00070  -0.00058  -0.00004  -0.00063   2.48175
    R2        2.57343  -0.00035  -0.00001  -0.00060  -0.00060   2.57283
    R3        3.35422   0.00012  -0.00027   0.00096   0.00069   3.35491
    R4        2.03010  -0.00014  -0.00004  -0.00027  -0.00031   2.02980
    R5        2.75931  -0.00062  -0.00064  -0.00080  -0.00144   2.75786
    R6        2.02892  -0.00013   0.00002  -0.00040  -0.00038   2.02855
    R7        2.50750  -0.00017   0.00012  -0.00061  -0.00049   2.50701
    R8        2.02983   0.00006  -0.00004   0.00023   0.00019   2.03002
    R9        2.02549   0.00000   0.00001  -0.00003  -0.00002   2.02547
    A1        2.12169  -0.00038   0.00020  -0.00188  -0.00168   2.12001
    A2        2.22733  -0.00006  -0.00006   0.00007   0.00002   2.22735
    A3        1.93417   0.00044  -0.00014   0.00181   0.00166   1.93583
    A4        2.01708   0.00030   0.00003   0.00108   0.00111   2.01819
    A5        2.20806  -0.00067   0.00016  -0.00296  -0.00280   2.20527
    A6        2.05804   0.00037  -0.00019   0.00188   0.00168   2.05972
    A7        2.04584  -0.00003  -0.00011  -0.00007  -0.00018   2.04566
    A8        2.14646  -0.00016  -0.00015  -0.00039  -0.00054   2.14592
    A9        2.09088   0.00019   0.00026   0.00046   0.00072   2.09160
   A10        2.13095   0.00014  -0.00007   0.00096   0.00089   2.13184
   A11        2.11959  -0.00014  -0.00001  -0.00080  -0.00081   2.11878
   A12        2.03265   0.00000   0.00007  -0.00016  -0.00008   2.03257
    D1        0.00000   0.00000   0.00000   0.00000   0.00000   0.00000
    D2        3.14159   0.00000   0.00000   0.00000   0.00000   3.14159
    D3        3.14159   0.00000   0.00000   0.00000   0.00000   3.14159
    D4        0.00000   0.00000   0.00000   0.00000   0.00000   0.00000
    D5        0.00000   0.00000   0.00000   0.00000   0.00000   0.00000
    D6        3.14159   0.00000   0.00000   0.00000   0.00000   3.14159
    D7        3.14159   0.00000   0.00000   0.00000   0.00000   3.14159
    D8        0.00000   0.00000   0.00000   0.00000   0.00000   0.00000
    D9        0.00000   0.00000   0.00000   0.00000   0.00000   0.00000
   D10        3.14159   0.00000   0.00000   0.00000   0.00000   3.14159
   D11        3.14159   0.00000   0.00000   0.00000   0.00000   3.14159
   D12        0.00000   0.00000   0.00000   0.00000   0.00000   0.00000
         Item               Value     Threshold  Converged?
 Maximum Force            0.000701     0.000450     NO 
 RMS     Force            0.000258     0.000300     YES
 Maximum Displacement     0.007781     0.001800     NO 
 RMS     Displacement     0.002238     0.001200     NO 
 Predicted change in Energy=-3.238882D-06
 GradGradGradGradGradGradGradGradGradGradGradGradGradGradGradGradGradGrad

                          Input orientation:                          
 ---------------------------------------------------------------------
 Center     Atomic      Atomic             Coordinates (Angstroms)
 Number     Number       Type             X           Y           Z
 ---------------------------------------------------------------------
      1          6           0       -2.054570   -1.693918    0.000000
      2          6           0       -1.346366   -0.587947    0.000000
      3          1           0       -1.911309    0.325605    0.000000
      4          6           0        0.109959   -0.493280    0.000000
      5          1           0        0.661660   -1.414119    0.000000
      6          6           0        0.757843    0.664411    0.000000
      7          1           0        0.243255    1.607378    0.000000
      8          1           0        1.828912    0.704888    0.000000
      9          9           0       -3.415769   -1.666217    0.000000
     10         17           0       -1.454678   -3.364834    0.000000
 ---------------------------------------------------------------------
                    Distance matrix (angstroms):
                    1          2          3          4          5
     1  C    0.000000
     2  C    1.313288   0.000000
     3  H    2.024598   1.074121   0.000000
     4  C    2.475221   1.459399   2.180847   0.000000
     5  H    2.730604   2.171343   3.105931   1.073461   0.000000
     6  C    3.670338   2.448693   2.690569   1.326651   2.080755
     7  H    4.022257   2.710414   2.507007   2.104883   3.050329
     8  H    4.564615   3.428384   3.759403   2.095330   2.419229
     9  F    1.361481   2.333473   2.496148   3.715715   4.085215
    10  Cl   1.775340   2.778999   3.718582   3.270155   2.878225
                    6          7          8          9         10
     6  C    0.000000
     7  H    1.074238   0.000000
     8  H    1.071834   1.824499   0.000000
     9  F    4.780258   4.909672   5.755764   0.000000
    10  Cl   4.596745   5.254129   5.229207   2.594452   0.000000
 Stoichiometry    C4H4ClF
 Framework group  CS[SG(C4H4ClF)]
 Deg. of freedom    17
 Full point group                 CS      NOp   2
 Largest Abelian subgroup         CS      NOp   2
 Largest concise Abelian subgroup C1      NOp   1
                         Standard orientation:                         
 ---------------------------------------------------------------------
 Center     Atomic      Atomic             Coordinates (Angstroms)
 Number     Number       Type             X           Y           Z
 ---------------------------------------------------------------------
      1          6           0        0.000000    0.774792    0.000000
      2          6           0       -0.953831   -0.127942    0.000000
      3          1           0       -1.956996    0.255983    0.000000
      4          6           0       -0.774181   -1.576241    0.000000
      5          1           0        0.233662   -1.945795    0.000000
      6          6           0       -1.790112   -2.429405    0.000000
      7          1           0       -2.812744   -2.100451    0.000000
      8          1           0       -1.629354   -3.489115    0.000000
      9          9           0       -0.282045    2.106739    0.000000
     10         17           0        1.753681    0.498324    0.000000
 ---------------------------------------------------------------------
 Rotational constants (GHZ):      5.0305342      1.6850583      1.2622480
 Standard basis: 6-31G (6D, 7F)
 There are    53 symmetry adapted basis functions of A'  symmetry.
 There are    13 symmetry adapted basis functions of A"  symmetry.
 Integral buffers will be    131072 words long.
 Raffenetti 1 integral format.
 Two-electron integral symmetry is turned on.
    66 basis functions,   172 primitive gaussians,    66 cartesian basis functions
    27 alpha electrons       27 beta electrons
       nuclear repulsion energy       260.6153246884 Hartrees.
 NAtoms=   10 NActive=   10 NUniq=   10 SFac= 7.50D-01 NAtFMM=   80 NAOKFM=F Big=F
 One-electron integrals computed using PRISM.
 NBasis=    66 RedAO= T  NBF=    53    13
 NBsUse=    66 1.00D-06 NBFU=    53    13
 Initial guess read from the read-write file.
 B after Tr=     0.000000    0.000000    0.000000
         Rot=    1.000000    0.000000    0.000000    0.000000 Ang=   0.00 deg.
 Initial guess orbital symmetries:
       Occupied  (A') (A') (A') (A') (A') (A') (A') (A') (A') (A")
                 (A') (A') (A') (A') (A') (A') (A') (A') (A") (A')
                 (A') (A') (A') (A") (A') (A") (A")
       Virtual   (A") (A') (A") (A') (A') (A') (A') (A') (A') (A')
                 (A') (A') (A') (A") (A') (A") (A') (A') (A") (A')
                 (A') (A") (A") (A') (A') (A') (A') (A') (A') (A')
                 (A') (A') (A') (A') (A") (A') (A') (A') (A')
 Requested convergence on RMS density matrix=1.00D-08 within 128 cycles.
 Requested convergence on MAX density matrix=1.00D-06.
 Requested convergence on             energy=1.00D-06.
 No special actions if energy rises.
 Keep R1 ints in memory in canonical form, NReq=3278450.
 SCF Done:  E(RHF) =  -712.553354648     A.U. after    9 cycles
             Convg  =    0.3751D-08             -V/T =  1.9996
 Calling FoFJK, ICntrl=      2127 FMM=F ISym2X=1 I1Cent= 0 IOpClX= 0 NMat=1 NMatS=1 NMatT=0.
 ***** Axes restored to original set *****
 -------------------------------------------------------------------
 Center     Atomic                   Forces (Hartrees/Bohr)
 Number     Number              X              Y              Z
 -------------------------------------------------------------------
      1        6          -0.000052938   -0.000026701    0.000000000
      2        6          -0.000054633    0.000000578    0.000000000
      3        1           0.000028408   -0.000077557    0.000000000
      4        6          -0.000030124   -0.000137998    0.000000000
      5        1          -0.000022651    0.000015806    0.000000000
      6        6           0.000119269    0.000194538    0.000000000
      7        1           0.000017379   -0.000033562    0.000000000
      8        1           0.000031975    0.000021744    0.000000000
      9        9           0.000022190   -0.000078991    0.000000000
     10       17          -0.000058875    0.000122142    0.000000000
 -------------------------------------------------------------------
 Cartesian Forces:  Max     0.000194538 RMS     0.000061684

 GradGradGradGradGradGradGradGradGradGradGradGradGradGradGradGradGradGrad
 Berny optimization.
 Using GEDIIS/GDIIS optimizer.
 Internal  Forces:  Max     0.000241799 RMS     0.000064258
 Search for a local minimum.
 Step number   5 out of a maximum of   43
 All quantities printed in internal units (Hartrees-Bohrs-Radians)
 Mixed Optimization -- En-DIIS/RFO-DIIS
 Swaping is turned off.
 Update second derivatives using D2CorX and points    1    2    3    4    5
 DE= -2.80D-06 DEPred=-3.24D-06 R= 8.64D-01
 SS=  1.41D+00  RLast= 4.86D-03 DXNew= 8.4853D-01 1.4578D-02
 Trust test= 8.64D-01 RLast= 4.86D-03 DXMaxT set to 5.05D-01
     Eigenvalues ---    0.00237   0.01433   0.01490   0.02681   0.02681
     Eigenvalues ---    0.02681   0.02681   0.14379   0.15987   0.16084
     Eigenvalues ---    0.16142   0.20260   0.22543   0.25411   0.28031
     Eigenvalues ---    0.30937   0.33902   0.37187   0.37199   0.37370
     Eigenvalues ---    0.37495   0.53805   0.59590   0.697011000.00000
     Eigenvalues --- 1000.000001000.000001000.000001000.000001000.00000
     Eigenvalues --- 1000.000001000.000001000.00000
 En-DIIS/RFO-DIIS IScMMF=        0 using points:     5    4
 RFO step:  Lambda=-2.00986536D-07.
 DIIS coeffs:      0.87976      0.12024
 Iteration  1 RMS(Cart)=  0.00032288 RMS(Int)=  0.00000003
 Iteration  2 RMS(Cart)=  0.00000003 RMS(Int)=  0.00000000
 ClnCor:  largest displacement from symmetrization is 2.37D-12 for atom     6.
 Variable       Old X    -DE/DX   Delta X   Delta X   Delta X     New X
                                  (DIIS)     (GDIIS)  (Total)
    R1        2.48175   0.00003   0.00008  -0.00006   0.00001   2.48177
    R2        2.57283  -0.00002   0.00007  -0.00014  -0.00007   2.57276
    R3        3.35491  -0.00013  -0.00008  -0.00029  -0.00038   3.35453
    R4        2.02980  -0.00008   0.00004  -0.00024  -0.00021   2.02959
    R5        2.75786   0.00012   0.00017   0.00010   0.00027   2.75814
    R6        2.02855  -0.00003   0.00005  -0.00013  -0.00008   2.02847
    R7        2.50701   0.00024   0.00006   0.00030   0.00036   2.50737
    R8        2.03002  -0.00004  -0.00002  -0.00006  -0.00008   2.02993
    R9        2.02547   0.00003   0.00000   0.00007   0.00008   2.02555
    A1        2.12001   0.00012   0.00020   0.00014   0.00034   2.12035
    A2        2.22735  -0.00004   0.00000  -0.00008  -0.00008   2.22726
    A3        1.93583  -0.00008  -0.00020  -0.00006  -0.00026   1.93557
    A4        2.01819  -0.00003  -0.00013   0.00002  -0.00011   2.01808
    A5        2.20527   0.00003   0.00034  -0.00029   0.00005   2.20532
    A6        2.05972   0.00000  -0.00020   0.00026   0.00006   2.05978
    A7        2.04566  -0.00005   0.00002  -0.00024  -0.00022   2.04545
    A8        2.14592   0.00008   0.00007   0.00020   0.00026   2.14618
    A9        2.09160  -0.00003  -0.00009   0.00004  -0.00005   2.09156
   A10        2.13184  -0.00001  -0.00011   0.00005  -0.00005   2.13178
   A11        2.11878   0.00003   0.00010   0.00002   0.00012   2.11890
   A12        2.03257  -0.00001   0.00001  -0.00008  -0.00007   2.03250
    D1        0.00000   0.00000   0.00000   0.00000   0.00000   0.00000
    D2        3.14159   0.00000   0.00000   0.00000   0.00000   3.14159
    D3        3.14159   0.00000   0.00000   0.00000   0.00000   3.14159
    D4        0.00000   0.00000   0.00000   0.00000   0.00000   0.00000
    D5        0.00000   0.00000   0.00000   0.00000   0.00000   0.00000
    D6        3.14159   0.00000   0.00000   0.00000   0.00000   3.14159
    D7        3.14159   0.00000   0.00000   0.00000   0.00000   3.14159
    D8        0.00000   0.00000   0.00000   0.00000   0.00000   0.00000
    D9        0.00000   0.00000   0.00000   0.00000   0.00000   0.00000
   D10        3.14159   0.00000   0.00000   0.00000   0.00000   3.14159
   D11        3.14159   0.00000   0.00000   0.00000   0.00000   3.14159
   D12        0.00000   0.00000   0.00000   0.00000   0.00000   0.00000
         Item               Value     Threshold  Converged?
 Maximum Force            0.000242     0.000450     YES
 RMS     Force            0.000064     0.000300     YES
 Maximum Displacement     0.000981     0.001800     YES
 RMS     Displacement     0.000323     0.001200     YES
 Predicted change in Energy=-1.521920D-07
 Optimization completed.
    -- Stationary point found.
                           ----------------------------
                           !   Optimized Parameters   !
                           ! (Angstroms and Degrees)  !
 --------------------------                            --------------------------
 ! Name  Definition              Value          Derivative Info.                !
 --------------------------------------------------------------------------------
 ! R1    R(1,2)                  1.3133         -DE/DX =    0.0                 !
 ! R2    R(1,9)                  1.3615         -DE/DX =    0.0                 !
 ! R3    R(1,10)                 1.7753         -DE/DX =   -0.0001              !
 ! R4    R(2,3)                  1.0741         -DE/DX =   -0.0001              !
 ! R5    R(2,4)                  1.4594         -DE/DX =    0.0001              !
 ! R6    R(4,5)                  1.0735         -DE/DX =    0.0                 !
 ! R7    R(4,6)                  1.3267         -DE/DX =    0.0002              !
 ! R8    R(6,7)                  1.0742         -DE/DX =    0.0                 !
 ! R9    R(6,8)                  1.0718         -DE/DX =    0.0                 !
 ! A1    A(2,1,9)              121.4675         -DE/DX =    0.0001              !
 ! A2    A(2,1,10)             127.6175         -DE/DX =    0.0                 !
 ! A3    A(9,1,10)             110.915          -DE/DX =   -0.0001              !
 ! A4    A(1,2,3)              115.634          -DE/DX =    0.0                 !
 ! A5    A(1,2,4)              126.3525         -DE/DX =    0.0                 !
 ! A6    A(3,2,4)              118.0135         -DE/DX =    0.0                 !
 ! A7    A(2,4,5)              117.2078         -DE/DX =    0.0                 !
 ! A8    A(2,4,6)              122.9521         -DE/DX =    0.0001              !
 ! A9    A(5,4,6)              119.8401         -DE/DX =    0.0                 !
 ! A10   A(4,6,7)              122.1453         -DE/DX =    0.0                 !
 ! A11   A(4,6,8)              121.3971         -DE/DX =    0.0                 !
 ! A12   A(7,6,8)              116.4576         -DE/DX =    0.0                 !
 ! D1    D(9,1,2,3)              0.0            -DE/DX =    0.0                 !
 ! D2    D(9,1,2,4)            180.0            -DE/DX =    0.0                 !
 ! D3    D(10,1,2,3)           180.0            -DE/DX =    0.0                 !
 ! D4    D(10,1,2,4)             0.0            -DE/DX =    0.0                 !
 ! D5    D(1,2,4,5)              0.0            -DE/DX =    0.0                 !
 ! D6    D(1,2,4,6)            180.0            -DE/DX =    0.0                 !
 ! D7    D(3,2,4,5)            180.0            -DE/DX =    0.0                 !
 ! D8    D(3,2,4,6)              0.0            -DE/DX =    0.0                 !
 ! D9    D(2,4,6,7)              0.0            -DE/DX =    0.0                 !
 ! D10   D(2,4,6,8)            180.0            -DE/DX =    0.0                 !
 ! D11   D(5,4,6,7)            180.0            -DE/DX =    0.0                 !
 ! D12   D(5,4,6,8)              0.0            -DE/DX =    0.0                 !
 --------------------------------------------------------------------------------
 GradGradGradGradGradGradGradGradGradGradGradGradGradGradGradGradGradGrad

                          Input orientation:                          
 ---------------------------------------------------------------------
 Center     Atomic      Atomic             Coordinates (Angstroms)
 Number     Number       Type             X           Y           Z
 ---------------------------------------------------------------------
      1          6           0       -2.054570   -1.693918    0.000000
      2          6           0       -1.346366   -0.587947    0.000000
      3          1           0       -1.911309    0.325605    0.000000
      4          6           0        0.109959   -0.493280    0.000000
      5          1           0        0.661660   -1.414119    0.000000
      6          6           0        0.757843    0.664411    0.000000
      7          1           0        0.243255    1.607378    0.000000
      8          1           0        1.828912    0.704888    0.000000
      9          9           0       -3.415769   -1.666217    0.000000
     10         17           0       -1.454678   -3.364834    0.000000
 ---------------------------------------------------------------------
                    Distance matrix (angstroms):
                    1          2          3          4          5
     1  C    0.000000
     2  C    1.313288   0.000000
     3  H    2.024598   1.074121   0.000000
     4  C    2.475221   1.459399   2.180847   0.000000
     5  H    2.730604   2.171343   3.105931   1.073461   0.000000
     6  C    3.670338   2.448693   2.690569   1.326651   2.080755
     7  H    4.022257   2.710414   2.507007   2.104883   3.050329
     8  H    4.564615   3.428384   3.759403   2.095330   2.419229
     9  F    1.361481   2.333473   2.496148   3.715715   4.085215
    10  Cl   1.775340   2.778999   3.718582   3.270155   2.878225
                    6          7          8          9         10
     6  C    0.000000
     7  H    1.074238   0.000000
     8  H    1.071834   1.824499   0.000000
     9  F    4.780258   4.909672   5.755764   0.000000
    10  Cl   4.596745   5.254129   5.229207   2.594452   0.000000
 Stoichiometry    C4H4ClF
 Framework group  CS[SG(C4H4ClF)]
 Deg. of freedom    17
 Full point group                 CS      NOp   2
 Largest Abelian subgroup         CS      NOp   2
 Largest concise Abelian subgroup C1      NOp   1
                         Standard orientation:                         
 ---------------------------------------------------------------------
 Center     Atomic      Atomic             Coordinates (Angstroms)
 Number     Number       Type             X           Y           Z
 ---------------------------------------------------------------------
      1          6           0        0.000000    0.774792    0.000000
      2          6           0       -0.953831   -0.127942    0.000000
      3          1           0       -1.956996    0.255983    0.000000
      4          6           0       -0.774181   -1.576241    0.000000
      5          1           0        0.233662   -1.945795    0.000000
      6          6           0       -1.790112   -2.429405    0.000000
      7          1           0       -2.812744   -2.100451    0.000000
      8          1           0       -1.629354   -3.489115    0.000000
      9          9           0       -0.282045    2.106739    0.000000
     10         17           0        1.753681    0.498324    0.000000
 ---------------------------------------------------------------------
 Rotational constants (GHZ):      5.0305342      1.6850583      1.2622480

 **********************************************************************

            Population analysis using the SCF density.

 **********************************************************************

 Orbital symmetries:
       Occupied  (A') (A') (A') (A') (A') (A') (A') (A') (A') (A")
                 (A') (A') (A') (A') (A') (A') (A') (A') (A") (A')
                 (A') (A') (A') (A") (A') (A") (A")
       Virtual   (A") (A') (A") (A') (A') (A') (A') (A') (A') (A')
                 (A') (A') (A') (A") (A') (A") (A') (A') (A") (A')
                 (A') (A") (A") (A') (A') (A') (A') (A') (A') (A')
                 (A') (A') (A') (A') (A") (A') (A') (A') (A')
 The electronic state is 1-A'.
 Alpha  occ. eigenvalues -- -104.84834 -26.32763 -11.40675 -11.27922 -11.26612
 Alpha  occ. eigenvalues --  -11.25239 -10.58904  -8.05754  -8.05323  -8.05307
 Alpha  occ. eigenvalues --   -1.64302  -1.17996  -1.10921  -1.02863  -0.84828
 Alpha  occ. eigenvalues --   -0.78461  -0.73173  -0.71037  -0.70706  -0.63319
 Alpha  occ. eigenvalues --   -0.61200  -0.55909  -0.52771  -0.52331  -0.48500
 Alpha  occ. eigenvalues --   -0.45545  -0.34388
 Alpha virt. eigenvalues --    0.10216   0.17681   0.23773   0.25015   0.25909
 Alpha virt. eigenvalues --    0.29861   0.32087   0.35207   0.48174   0.50861
 Alpha virt. eigenvalues --    0.54048   0.58148   0.60723   0.62376   0.69194
 Alpha virt. eigenvalues --    0.74264   0.77034   0.78774   0.78956   0.83275
 Alpha virt. eigenvalues --    0.84930   0.89031   0.90378   0.95696   1.01653
 Alpha virt. eigenvalues --    1.12045   1.15381   1.19452   1.21665   1.25062
 Alpha virt. eigenvalues --    1.29175   1.33164   1.40390   1.53863   1.56670
 Alpha virt. eigenvalues --    1.60728   1.67379   1.79322   2.44229
          Condensed to atoms (all electrons):
              1          2          3          4          5          6
     1  C    5.119244   0.461725  -0.037380  -0.012920  -0.000638   0.001622
     2  C    0.461725   5.288766   0.391134   0.287600  -0.040020  -0.050569
     3  H   -0.037380   0.391134   0.430495  -0.027871   0.001656   0.000417
     4  C   -0.012920   0.287600  -0.027871   4.991502   0.394588   0.587364
     5  H   -0.000638  -0.040020   0.001656   0.394588   0.453626  -0.028520
     6  C    0.001622  -0.050569   0.000417   0.587364  -0.028520   5.058136
     7  H    0.000197  -0.001409   0.001904  -0.052612   0.002431   0.401183
     8  H   -0.000149   0.002553   0.000096  -0.035403  -0.002075   0.391499
     9  F    0.140556  -0.044673  -0.002923   0.001778   0.000023  -0.000044
    10  Cl   0.186612  -0.095990   0.001478   0.007683   0.001049   0.000472
              7          8          9         10
     1  C    0.000197  -0.000149   0.140556   0.186612
     2  C   -0.001409   0.002553  -0.044673  -0.095990
     3  H    0.001904   0.000096  -0.002923   0.001478
     4  C   -0.052612  -0.035403   0.001778   0.007683
     5  H    0.002431  -0.002075   0.000023   0.001049
     6  C    0.401183   0.391499  -0.000044   0.000472
     7  H    0.495183  -0.023081   0.000000   0.000005
     8  H   -0.023081   0.484613   0.000000  -0.000010
[...]
  Atom  AN      X      Y      Z        X      Y      Z        X      Y      Z
     1   6     0.00   0.00   0.00     0.00   0.00   0.00     0.00   0.00   0.00
     2   6     0.05  -0.02   0.00    -0.06   0.02   0.00     0.00   0.00   0.00
     3   1    -0.61   0.22   0.00     0.71  -0.26   0.00    -0.03   0.01   0.00
     4   6    -0.06   0.02   0.00    -0.05   0.01   0.00     0.02  -0.01   0.00
     5   1     0.69  -0.25   0.00     0.59  -0.22   0.00    -0.19   0.07   0.00
     6   6     0.02   0.00   0.00     0.02  -0.01   0.00     0.05  -0.08   0.00
     7   1    -0.18   0.06   0.00    -0.13   0.04   0.00    -0.53   0.16   0.00
     8   1     0.00   0.02   0.00    -0.01   0.09   0.00    -0.11   0.79   0.00
     9   9     0.00   0.00   0.00     0.00   0.00   0.00     0.00   0.00   0.00
    10  17     0.00   0.00   0.00     0.00   0.00   0.00     0.00   0.00   0.00

 -------------------
 - Thermochemistry -
 -------------------
 Temperature   298.150 Kelvin.  Pressure   1.00000 Atm.
 Atom     1 has atomic number  6 and mass  12.00000
 Atom     2 has atomic number  6 and mass  12.00000
 Atom     3 has atomic number  1 and mass   1.00783
 Atom     4 has atomic number  6 and mass  12.00000
 Atom     5 has atomic number  1 and mass   1.00783
 Atom     6 has atomic number  6 and mass  12.00000
 Atom     7 has atomic number  1 and mass   1.00783
 Atom     8 has atomic number  1 and mass   1.00783
 Atom     9 has atomic number  9 and mass  18.99840
 Atom    10 has atomic number 17 and mass  34.96885
 Molecular mass:   105.99856 amu.
 Principal axes and moments of inertia in atomic units:
                           1         2         3
     Eigenvalues --   358.757371071.026001429.78337
           X            0.63008   0.77653   0.00000
           Y            0.77653  -0.63008   0.00000
           Z            0.00000   0.00000   1.00000
 This molecule is an asymmetric top.
 Rotational symmetry number  1.
 Rotational temperatures (Kelvin)      0.24143     0.08087     0.06058
 Rotational constants (GHZ):           5.03053     1.68506     1.26225
 Zero-point vibrational energy     195500.5 (Joules/Mol)
                                   46.72575 (Kcal/Mol)
 Warning -- explicit consideration of   7 degrees of freedom as
           vibrations may cause significant error
 Vibrational temperatures:    168.28   244.29   388.21   514.08   644.80
          (Kelvin)            783.68   810.86  1033.09  1085.15  1508.70
                             1529.39  1623.55  1675.94  1761.66  1895.01
                             2067.47  2121.85  2319.78  2645.64  2782.25
                             4795.73  4843.54  4854.50  4929.13
 
 Zero-point correction=                           0.074462 (Hartree/Particle)
 Thermal correction to Energy=                    0.080401
 Thermal correction to Enthalpy=                  0.081345
 Thermal correction to Gibbs Free Energy=         0.043918
 Sum of electronic and zero-point Energies=           -712.478892
 Sum of electronic and thermal Energies=              -712.472954
 Sum of electronic and thermal Enthalpies=            -712.472010
 Sum of electronic and thermal Free Energies=         -712.509437
 
                     E (Thermal)             CV                S
                      KCal/Mol        Cal/Mol-Kelvin    Cal/Mol-Kelvin
 Total                   50.452             19.934             78.772
 Electronic               0.000              0.000              0.000
 Translational            0.889              2.981             39.892
 Rotational               0.889              2.981             27.798
 Vibrational             48.675             13.972             11.082
 Vibration     1          0.608              1.935              3.150
 Vibration     2          0.625              1.880              2.438
 Vibration     3          0.674              1.729              1.597
 Vibration     4          0.732              1.560              1.134
 Vibration     5          0.807              1.365              0.801
 Vibration     6          0.900              1.151              0.555
 Vibration     7          0.919              1.110              0.517
                       Q            Log10(Q)             Ln(Q)
 Total Bot       0.629656D-20        -20.200896        -46.514283
 Total V=0       0.112014D+15         14.049272         32.349645
 Vib (Bot)       0.553244D-33        -33.257084        -76.577265
 Vib (Bot)    1  0.174848D+01          0.242660          0.558745
 Vib (Bot)    2  0.118698D+01          0.074442          0.171408
 Vib (Bot)    3  0.716335D+00         -0.144884         -0.333608
 Vib (Bot)    4  0.513896D+00         -0.289124         -0.665733
 Vib (Bot)    5  0.383223D+00         -0.416548         -0.959137
 Vib (Bot)    6  0.289585D+00         -0.538224         -1.239306
 Vib (Bot)    7  0.274819D+00         -0.560954         -1.291644
 Vib (V=0)       0.984204D+01          0.993085          2.286663
 Vib (V=0)    1  0.231856D+01          0.365219          0.840948
 Vib (V=0)    2  0.178799D+01          0.252364          0.581090
 Vib (V=0)    3  0.137358D+01          0.137853          0.317418
 Vib (V=0)    4  0.121700D+01          0.085291          0.196389
 Vib (V=0)    5  0.112997D+01          0.053066          0.122190
 Vib (V=0)    6  0.107781D+01          0.032541          0.074927
 Vib (V=0)    7  0.107055D+01          0.029606          0.068171
 Electronic      0.100000D+01          0.000000          0.000000
 Translational   0.428948D+08          7.632405         17.574262
 Rotational      0.265327D+06          5.423782         12.488719
 ***** Axes restored to original set *****
 -------------------------------------------------------------------
 Center     Atomic                   Forces (Hartrees/Bohr)
 Number     Number              X              Y              Z
 -------------------------------------------------------------------
      1        6          -0.000052940   -0.000026684    0.000000000
      2        6          -0.000054635    0.000000571    0.000000000
      3        1           0.000028409   -0.000077558    0.000000000
      4        6          -0.000030126   -0.000137997    0.000000000
      5        1          -0.000022651    0.000015807    0.000000000
      6        6           0.000119271    0.000194537    0.000000000
      7        1           0.000017379   -0.000033561    0.000000000
      8        1           0.000031975    0.000021744    0.000000000
      9        9           0.000022194   -0.000078998    0.000000000
     10       17          -0.000058875    0.000122140    0.000000000
 -------------------------------------------------------------------
 Cartesian Forces:  Max     0.000194537 RMS     0.000061684

 GradGradGradGradGradGradGradGradGradGradGradGradGradGradGradGradGradGrad
 Berny optimization.
 Internal  Forces:  Max     0.000241799 RMS     0.000064259
 Search for a local minimum.
 Step number   1 out of a maximum of    2
 All quantities printed in internal units (Hartrees-Bohrs-Radians)
 Second derivative matrix not updated -- analytic derivatives used.
     Eigenvalues ---    0.00513   0.02786   0.03158   0.03484   0.03758
     Eigenvalues ---    0.05446   0.06359   0.12641   0.13267   0.13918
     Eigenvalues ---    0.15921   0.17288   0.19595   0.21533   0.24844
     Eigenvalues ---    0.30670   0.39982   0.40168   0.40289   0.40567
     Eigenvalues ---    0.40766   0.46662   0.73391   0.763691000.00000
     Eigenvalues --- 1000.000001000.000001000.000001000.000001000.00000
     Eigenvalues --- 1000.000001000.000001000.00000
 Angle between quadratic step and forces=  23.54 degrees.
 Linear search not attempted -- first point.
 Iteration  1 RMS(Cart)=  0.00033580 RMS(Int)=  0.00000004
 Iteration  2 RMS(Cart)=  0.00000005 RMS(Int)=  0.00000000
 ClnCor:  largest displacement from symmetrization is 5.58D-15 for atom     8.
 Variable       Old X    -DE/DX   Delta X   Delta X   Delta X     New X
                                 (Linear)    (Quad)   (Total)
    R1        2.48175   0.00003   0.00000   0.00003   0.00003   2.48179
    R2        2.57283  -0.00002   0.00000  -0.00007  -0.00007   2.57275
    R3        3.35491  -0.00013   0.00000  -0.00043  -0.00043   3.35448
    R4        2.02980  -0.00008   0.00000  -0.00019  -0.00019   2.02961
    R5        2.75786   0.00012   0.00000   0.00026   0.00026   2.75812
    R6        2.02855  -0.00003   0.00000  -0.00006  -0.00006   2.02849
    R7        2.50701   0.00024   0.00000   0.00031   0.00031   2.50731
    R8        2.03002  -0.00004   0.00000  -0.00009  -0.00009   2.02993
    R9        2.02547   0.00003   0.00000   0.00007   0.00007   2.02554
    A1        2.12001   0.00012   0.00000   0.00038   0.00038   2.12039
    A2        2.22735  -0.00004   0.00000  -0.00011  -0.00011   2.22724
    A3        1.93583  -0.00008   0.00000  -0.00027  -0.00027   1.93556
    A4        2.01819  -0.00003   0.00000  -0.00009  -0.00009   2.01810
    A5        2.20527   0.00003   0.00000   0.00002   0.00002   2.20529
    A6        2.05972   0.00000   0.00000   0.00007   0.00007   2.05979
    A7        2.04566  -0.00005   0.00000  -0.00021  -0.00021   2.04545
    A8        2.14592   0.00008   0.00000   0.00028   0.00028   2.14619
    A9        2.09160  -0.00003   0.00000  -0.00006  -0.00006   2.09154
   A10        2.13184  -0.00001   0.00000  -0.00008  -0.00008   2.13176
   A11        2.11878   0.00003   0.00000   0.00010   0.00010   2.11888
   A12        2.03257  -0.00001   0.00000  -0.00003  -0.00003   2.03254
    D1        0.00000   0.00000   0.00000   0.00000   0.00000   0.00000
    D2        3.14159   0.00000   0.00000   0.00000   0.00000   3.14159
    D3        3.14159   0.00000   0.00000   0.00000   0.00000   3.14159
    D4        0.00000   0.00000   0.00000   0.00000   0.00000   0.00000
    D5        0.00000   0.00000   0.00000   0.00000   0.00000   0.00000
    D6        3.14159   0.00000   0.00000   0.00000   0.00000   3.14159
    D7        3.14159   0.00000   0.00000   0.00000   0.00000   3.14159
    D8        0.00000   0.00000   0.00000   0.00000   0.00000   0.00000
    D9        0.00000   0.00000   0.00000   0.00000   0.00000   0.00000
   D10        3.14159   0.00000   0.00000   0.00000   0.00000   3.14159
   D11        3.14159   0.00000   0.00000   0.00000   0.00000   3.14159
   D12        0.00000   0.00000   0.00000   0.00000   0.00000   0.00000
         Item               Value     Threshold  Converged?
 Maximum Force            0.000242     0.000450     YES
 RMS     Force            0.000064     0.000300     YES
 Maximum Displacement     0.001095     0.001800     YES
 RMS     Displacement     0.000336     0.001200     YES
 Predicted change in Energy=-1.503766D-07
 Optimization completed.
    -- Stationary point found.
                           ----------------------------
                           !   Optimized Parameters   !
                           ! (Angstroms and Degrees)  !
 --------------------------                            --------------------------
 ! Name  Definition              Value          Derivative Info.                !
 --------------------------------------------------------------------------------
 ! R1    R(1,2)                  1.3133         -DE/DX =    0.0                 !
 ! R2    R(1,9)                  1.3615         -DE/DX =    0.0                 !
 ! R3    R(1,10)                 1.7753         -DE/DX =   -0.0001              !
 ! R4    R(2,3)                  1.0741         -DE/DX =   -0.0001              !
 ! R5    R(2,4)                  1.4594         -DE/DX =    0.0001              !
 ! R6    R(4,5)                  1.0735         -DE/DX =    0.0                 !
 ! R7    R(4,6)                  1.3267         -DE/DX =    0.0002              !
 ! R8    R(6,7)                  1.0742         -DE/DX =    0.0                 !
 ! R9    R(6,8)                  1.0718         -DE/DX =    0.0                 !
 ! A1    A(2,1,9)              121.4675         -DE/DX =    0.0001              !
 ! A2    A(2,1,10)             127.6175         -DE/DX =    0.0                 !
 ! A3    A(9,1,10)             110.915          -DE/DX =   -0.0001              !
 ! A4    A(1,2,3)              115.634          -DE/DX =    0.0                 !
 ! A5    A(1,2,4)              126.3525         -DE/DX =    0.0                 !
 ! A6    A(3,2,4)              118.0135         -DE/DX =    0.0                 !
 ! A7    A(2,4,5)              117.2078         -DE/DX =    0.0                 !
 ! A8    A(2,4,6)              122.9521         -DE/DX =    0.0001              !
 ! A9    A(5,4,6)              119.8401         -DE/DX =    0.0                 !
 ! A10   A(4,6,7)              122.1453         -DE/DX =    0.0                 !
 ! A11   A(4,6,8)              121.3971         -DE/DX =    0.0                 !
 ! A12   A(7,6,8)              116.4576         -DE/DX =    0.0                 !
 ! D1    D(9,1,2,3)              0.0            -DE/DX =    0.0                 !
 ! D2    D(9,1,2,4)            180.0            -DE/DX =    0.0                 !
 ! D3    D(10,1,2,3)           180.0            -DE/DX =    0.0                 !
 ! D4    D(10,1,2,4)             0.0            -DE/DX =    0.0                 !
 ! D5    D(1,2,4,5)              0.0            -DE/DX =    0.0                 !
 ! D6    D(1,2,4,6)            180.0            -DE/DX =    0.0                 !
 ! D7    D(3,2,4,5)            180.0            -DE/DX =    0.0                 !
 ! D8    D(3,2,4,6)              0.0            -DE/DX =    0.0                 !
 ! D9    D(2,4,6,7)              0.0            -DE/DX =    0.0                 !
 ! D10   D(2,4,6,8)            180.0            -DE/DX =    0.0                 !
 ! D11   D(5,4,6,7)            180.0            -DE/DX =    0.0                 !
 ! D12   D(5,4,6,8)              0.0            -DE/DX =    0.0                 !
 --------------------------------------------------------------------------------
 GradGradGradGradGradGradGradGradGradGradGradGradGradGradGradGradGradGrad

 1\1\GINC-MALLOS73\Freq\RHF\6-31G\C4H4Cl1F1\MARLIN\26-Oct-2024\0\\#N Ge
 om=AllCheck Guess=TCheck SCRF=Check GenChk RHF/6-31G Freq\\Title Card 
 Required\\0,1\C,-2.0545704114,-1.6939177642,0.\C,-1.3463663125,-0.5879
 470631,0.\H,-1.9113087221,0.3256047399,0.\C,0.1099587516,-0.4932802974
 ,0.\H,0.6616602928,-1.4141192455,0.\C,0.7578427168,0.6644111583,0.\H,0
 .2432548064,1.6073778062,0.\H,1.8289123703,0.7048878019,0.\F,-3.415769
 2765,-1.6662170998,0.\Cl,-1.4546781953,-3.3648343563,0.\\Version=EM64L
 -G09RevA.01\State=1-A'\HF=-712.5533546\RMSD=1.254e-09\RMSF=6.168e-05\Z
 eroPoint=0.0744622\Thermal=0.080401\Dipole=0.8084249,0.7953808,0.\Dipo
 leDeriv=1.2845188,-0.127932,0.,-0.0403311,1.4318004,0.,0.,0.,0.127932,
 -0.0008871,0.2657396,0.,-0.0894715,-0.321105,0.,0.,0.,-0.1104334,0.016
 2605,-0.0435544,0.,0.0728426,-0.0221263,0.,0.,0.,0.2064825,0.1659302,0
 .1165338,0.,-0.1011124,-0.0079218,0.,0.,0.,-0.1703089,-0.0051209,-0.00
 22866,0.,0.0671946,-0.0188262,0.,0.,0.,0.1797174,0.0164169,-0.17323,0.
 ,-0.0463793,0.0765352,0.,0.,0.,-0.349812,0.0095179,0.1030568,0.,0.0609
 758,-0.0360209,0.,0.,0.,0.1836567,-0.0929224,-0.0271441,0.,0.0071681,0
 .0511492,0.,0.,0.,0.1760596,-1.230758,-0.3102306,0.,0.0487084,-0.48856
 31,0.,0.,0.,-0.1942509,-0.1629558,0.1990475,0.,0.0204047,-0.6649216,0.
 ,0.,0.,-0.049043\Polar=56.4350876,20.2514872,80.8512162,0.,0.,16.98423
 92\HyperPolar=85.0302098,27.9662568,19.8397816,128.3098432,0.,0.,0.,-5
 .9408853,-8.6306722,0.\PG=CS [SG(C4H4Cl1F1)]\NImag=0\\0.70866000,0.241
 26902,0.78070207,0.,0.,0.12126446,-0.26968870,-0.22888944,0.,0.8043661
 8,-0.25752589,-0.50769152,0.,0.13032029,0.95006653,0.,0.,-0.07153673,0
 .,0.,0.16844829,0.01040121,-0.01946091,0.,-0.15033464,0.13960945,0.,0.
 15772046,0.02095785,-0.02773019,0.,0.13282746,-0.29451432,0.,-0.145743
 63,0.31317150,0.,0.,0.01197421,0.,0.,-0.04990891,0.,0.,0.03135566,-0.0
 2631031,-0.02106389,0.,-0.29697751,0.00890701,0.,-0.01515764,-0.004526
 76,0.,0.74018287,-0.04236140,-0.00356337,0.,0.00407292,-0.12192067,0.,
 0.03212708,0.00545522,0.,0.10285968,0.97359980,0.,0.,0.00368397,0.,0.,
 -0.08206669,0.,0.,0.00573087,0.,0.,0.17288304,-0.00033219,0.00396449,0
 .,-0.01693508,0.03135587,0.,-0.00517786,-0.00168035,0.,-0.15234811,0.1
 3674653,0.,0.16058255,-0.00016417,0.00045118,0.,-0.00464773,0.00547357
 ,0.,-0.00148921,0.00039293,0.,0.13465730,-0.29431943,0.,-0.14305316,0.
 31531420,0.,0.,-0.00013941,0.,0.,0.00477563,0.,0.,0.00237694,0.,0.,-0.
 05401884,0.,0.,0.03319852,-0.00313872,0.00861047,0.,-0.03168579,-0.050
 15051,0.,0.00215463,-0.00087968,0.,-0.25439374,-0.21184361,0.,0.013583
 45,0.01993071,0.,0.80643051,0.00579275,0.00436773,0.,-0.01320429,-0.00
 237408,0.,0.00092722,0.00168205,0.,-0.21071894,-0.53465216,0.,-0.02091
 404,-0.02432805,0.,0.11489130,0.92859553,0.,0.,0.00114988,0.,0.,0.0101
 9715,0.,0.,-0.00153551,0.,0.,-0.07458731,0.,0.,0.01021318,0.,0.,0.1540
 8457,0.00020928,-0.00056447,0.,0.00177497,-0.00095232,0.,0.00001038,0.
 00024945,0.,0.01279930,-0.01993752,0.,-0.00107581,-0.00315767,0.,-0.14
 549824,0.13435830,0.,0.14245305,0.00017395,-0.00004489,0.,0.00174777,0
 .00199618,0.,-0.00144591,0.00014303,0.,0.02142027,-0.02446061,0.,-0.00
 348685,-0.00295245,0.,0.12530161,-0.30258665,0.,-0.14003293,0.32305511
 ,0.,0.,-0.00003533,0.,0.,-0.01020501,0.,0.,0.00058047,0.,0.,0.00988809
 ,0.,0.,0.01358882,0.,0.,-0.05063360,0.,0.,0.03030423,-0.00039771,0.000
 66447,0.,0.00068927,-0.00271984,0.,0.00048180,0.00006011,0.,-0.0113009
 1,0.00536932,0.,0.00126764,-0.00035642,0.,-0.38491329,-0.01175886,0.,-
 0.01064618,-0.00335641,0.,0.40515653,-0.00114213,0.00123343,0.,-0.0013
 4762,-0.00544079,0.,-0.00023370,0.00007661,0.,-0.03692802,0.00330926,0
 .,0.00009887,0.00150058,0.,-0.00237477,-0.07074056,0.,0.02973366,0.004
 49229,0.,0.01269329,0.06620697,0.,0.,0.00067668,0.,0.,0.01405820,0.,0.
 ,-0.00023521,0.,0.,0.00954194,0.,0.,-0.00968274,0.,0.,-0.04902928,0.,0
 .,0.00578890,0.,0.,0.03039297,-0.37500651,-0.02397465,0.,-0.04709091,0
 .00829255,0.,0.00047008,0.00037183,0.,0.00565730,-0.00644669,0.,-0.000
 33607,0.00062494,0.,-0.00391145,0.00138836,0.,0.00017827,-0.00007286,0
 .,-0.00038367,-0.00063894,0.,0.44738260,0.00681487,-0.07062931,0.,-0.0
 4575000,0.00675933,0.,-0.00025928,0.00358319,0.,0.00234326,-0.00312501
 ,0.,-0.00098741,-0.00006748,0.,-0.00196662,0.00043068,0.,0.00019995,0.
 00006857,0.,-0.00027958,-0.00049457,0.,0.00193158,0.07775620,0.,0.,-0.
 03865938,0.,0.,0.00867778,0.,0.,-0.00819892,0.,0.,0.01302366,0.,0.,-0.
 00044945,0.,0.,0.00002152,0.,0.,0.00067558,0.,0.,-0.00161761,0.,0.,0.0
 2202663,-0.04439636,0.03944492,0.,0.00588220,-0.00713661,0.,-0.0005684
 4,-0.00163628,0.,-0.00215124,-0.00058630,0.,0.00077147,-0.00234460,0.,
 0.00137264,-0.00076181,0.,-0.00020504,-0.00024864,0.,0.00004652,0.0001
 3937,0.,-0.02695965,0.03795323,0.,0.06620789,0.02618515,-0.17709514,0.
 ,0.02487064,-0.03235423,0.,-0.00403111,-0.00226003,0.,0.00305009,-0.00
 032304,0.,-0.00204395,-0.00146505,0.,-0.00151890,-0.00039449,0.,0.0001
 0355,0.00028943,0.,-0.00031609,-0.00014321,0.,0.01852388,-0.01428159,0
 .,-0.06482327,0.22802735,0.,0.,-0.02837836,0.,0.,0.00756030,0.,0.,0.00
 786042,0.,0.,-0.00407872,0.,0.,0.00013735,0.,0.,0.00011940,0.,0.,0.000
 04784,0.,0.,0.00010615,0.,0.,0.00450020,0.,0.,0.01212542\\0.00005294,0
 .00002668,0.,0.00005464,-0.00000057,0.,-0.00002841,0.00007756,0.,0.000
 03013,0.00013800,0.,0.00002265,-0.00001581,0.,-0.00011927,-0.00019454,
 0.,-0.00001738,0.00003356,0.,-0.00003198,-0.00002174,0.,-0.00002219,0.
 00007900,0.,0.00005887,-0.00012214,0.\\\@


 ALTHOUGH J.J. COULD DIAGNOSE THE FAULTS OF AN
 APPARATUS WITH UNCANNY ACCURACY, IT WAS JUST AS
 WELL NOT TO LET HIM HANDLE IT.
   -- GEORGE THOMPSON, ABOUT HIS FATHER
 Job cpu time:  0 days  0 hours  0 minutes 49.4 seconds.
 File lengths (MBytes):  RWF=     11 Int=      0 D2E=      0 Chk=      1 Scr=      1
 Normal termination of Gaussian 09 at Sat Oct 26 18:10:26 2024.
