 Entering Gaussian System, Link 0=g09
 Initial command:
 /u/local/G09/g09/l1.exe /tmp/marlin/22995.mallos00.local/Gau-12286.inp -scrdir=/tmp/marlin/22995.mallos00.local/
 Entering Link 1 = /u/local/G09/g09/l1.exe PID=     12288.
  
 Copyright (c) 1988,1990,1992,1993,1995,1998,2003,2009, Gaussian, Inc.
                  All Rights Reserved.
  
 This is part of the Gaussian(R) 09 program.  It is based on
 the Gaussian(R) 03 system (copyright 2003, Gaussian, Inc.),
 the Gaussian(R) 98 system (copyright 1998, Gaussian, Inc.),
 the Gaussian(R) 94 system (copyright 1995, Gaussian, Inc.),
 the Gaussian 92(TM) system (copyright 1992, Gaussian, Inc.),
 the Gaussian 90(TM) system (copyright 1990, Gaussian, Inc.),
 the Gaussian 88(TM) system (copyright 1988, Gaussian, Inc.),
 the Gaussian 86(TM) system (copyright 1986, Carnegie Mellon
 University), and the Gaussian 82(TM) system (copyright 1983,
 Carnegie Mellon University). Gaussian is a federally registered
 trademark of Gaussian, Inc.
  
 This software contains proprietary and confidential information,
 including trade secrets, belonging to Gaussian, Inc.
  
 This software is provided under written license and may be
 used, copied, transmitted, or stored only in accord with that
 written license.
  
 The following legend is applicable only to US Government
 contracts under FAR:
  
                    RESTRICTED RIGHTS LEGEND
  
 Use, reproduction and disclosure by the US Government is
 subject to restrictions as set forth in subparagraphs (a)
 and (c) of the Commercial Computer Software - Restricted
 Rights clause in FAR 52.227-19.
  
 Gaussian, Inc.
 340 Quinnipiac St., Bldg. 40, Wallingford CT 06492
  
  
 ---------------------------------------------------------------
 Warning -- This program may not be used in any manner that
 competes with the business of Gaussian, Inc. or will provide
 assistance to any competitor of Gaussian, Inc.  The licensee
 of this program is prohibited from giving any competitor of
 Gaussian, Inc. access to this program.  By using this program,
 the user acknowledges that Gaussian, Inc. is engaged in the
 business of creating and licensing software in the field of
 computational chemistry and represents and warrants to the
 licensee that it is not a competitor of Gaussian, Inc. and that
 it will not use this program in any manner prohibited above.
 ---------------------------------------------------------------
  

 Cite this work as:
 Gaussian 09, Revision A.01,
 M. J. Frisch, G. W. Trucks, H. B. Schlegel, G. E. Scuseria, 
 M. A. Robb, J. R. Cheeseman, G. Scalmani, V. Barone, B. Mennucci, 
 G. A. Petersson, H. Nakatsuji, M. Caricato, X. Li, H. P. Hratchian, 
 A. F. Izmaylov, J. Bloino, G. Zheng, J. L. Sonnenberg, M. Hada, 
 M. Ehara, K. Toyota, R. Fukuda, J. Hasegawa, M. Ishida, T. Nakajima, 
 Y. Honda, O. Kitao, H. Nakai, T. Vreven, J. A. Montgomery, Jr., 
 J. E. Peralta, F. Ogliaro, M. Bearpark, J. J. Heyd, E. Brothers, 
 K. N. Kudin, V. N. Staroverov, R. Kobayashi, J. Normand, 
 K. Raghavachari, A. Rendell, J. C. Burant, S. S. Iyengar, J. Tomasi, 
 M. Cossi, N. Rega, J. M. Millam, M. Klene, J. E. Knox, J. B. Cross, 
 V. Bakken, C. Adamo, J. Jaramillo, R. Gomperts, R. E. Stratmann, 
 O. Yazyev, A. J. Austin, R. Cammi, C. Pomelli, J. W. Ochterski, 
 R. L. Martin, K. Morokuma, V. G. Zakrzewski, G. A. Voth, 
 P. Salvador, J. J. Dannenberg, S. Dapprich, A. D. Daniels, 
 O. Farkas, J. B. Foresman, J. V. Ortiz, J. Cioslowski, 
 and D. J. Fox, Gaussian, Inc., Wallingford CT, 2009.
 
 ******************************************
 Gaussian 09:  EM64L-G09RevA.01  8-May-2009
                26-Oct-2024 
 ******************************************
 %mem=206GB
 %nproc=20
 Will use up to   20 processors via shared memory.
 %chk=1-base4.chk
 -----------------------------------------------
 # opt freq=noraman hf/cc-pvdz geom=connectivity
 -----------------------------------------------
 1/18=20,19=15,38=1,57=2/1,3;
 2/9=110,12=2,17=6,18=5,40=1/2;
 3/5=16,11=9,16=1,25=1,30=1,71=1/1,2,3;
 4//1;
 5/5=2,38=5/2;
 6/7=2,8=2,9=2,10=2,28=1/1;
 7//1,2,3,16;
 1/18=20,19=15/3(2);
 2/9=110/2;
 99//99;
 2/9=110/2;
 3/5=16,11=9,16=1,25=1,30=1,71=1/1,2,3;
 4/5=5,16=3/1;
 5/5=2,38=5/2;
 7//1,2,3,16;
 1/18=20,19=15/3(-5);
 2/9=110/2;
 6/7=2,8=2,9=2,10=2,19=2,28=1/1;
 99/9=1/99;
 -------------------
 Title Card Required
 -------------------
 Symbolic Z-matrix:
 Charge =  0 Multiplicity = 1
 C                    -2.1124   -1.70543   0. 
 C                    -1.43713  -0.53045   0. 
 H                    -1.97029   0.39726   0. 
 C                     0.10287  -0.53045   0. 
 H                     0.63603  -1.45815   0. 
 C                     0.78511   0.6405    0. 
 H                     0.25747   1.57135   0. 
 H                     1.8551    0.63414   0. 
 F                    -3.4624   -1.70543   0. 
 Cl                   -1.23542  -3.23137   0. 
 

 GradGradGradGradGradGradGradGradGradGradGradGradGradGradGradGradGradGrad
 Berny optimization.
 Initialization pass.
                           ----------------------------
                           !    Initial Parameters    !
                           ! (Angstroms and Degrees)  !
 --------------------------                            --------------------------
 ! Name  Definition              Value          Derivative Info.                !
 --------------------------------------------------------------------------------
 ! R1    R(1,2)                  1.3552         estimate D2E/DX2                !
 ! R2    R(1,9)                  1.35           estimate D2E/DX2                !
 ! R3    R(1,10)                 1.76           estimate D2E/DX2                !
 ! R4    R(2,3)                  1.07           estimate D2E/DX2                !
 ! R5    R(2,4)                  1.54           estimate D2E/DX2                !
 ! R6    R(4,5)                  1.07           estimate D2E/DX2                !
 ! R7    R(4,6)                  1.3552         estimate D2E/DX2                !
 ! R8    R(6,7)                  1.07           estimate D2E/DX2                !
 ! R9    R(6,8)                  1.07           estimate D2E/DX2                !
 ! A1    A(2,1,9)              119.8865         estimate D2E/DX2                !
 ! A2    A(2,1,10)             120.2269         estimate D2E/DX2                !
 ! A3    A(9,1,10)             119.8865         estimate D2E/DX2                !
 ! A4    A(1,2,3)              120.2269         estimate D2E/DX2                !
 ! A5    A(1,2,4)              119.8865         estimate D2E/DX2                !
 ! A6    A(3,2,4)              119.8865         estimate D2E/DX2                !
 ! A7    A(2,4,5)              119.8865         estimate D2E/DX2                !
 ! A8    A(2,4,6)              120.2269         estimate D2E/DX2                !
 ! A9    A(5,4,6)              119.8865         estimate D2E/DX2                !
 ! A10   A(4,6,7)              120.2269         estimate D2E/DX2                !
 ! A11   A(4,6,8)              119.8865         estimate D2E/DX2                !
 ! A12   A(7,6,8)              119.8865         estimate D2E/DX2                !
 ! D1    D(9,1,2,3)              0.0            estimate D2E/DX2                !
 ! D2    D(9,1,2,4)            180.0            estimate D2E/DX2                !
 ! D3    D(10,1,2,3)           180.0            estimate D2E/DX2                !
 ! D4    D(10,1,2,4)             0.0            estimate D2E/DX2                !
 ! D5    D(1,2,4,5)              0.0            estimate D2E/DX2                !
 ! D6    D(1,2,4,6)            180.0            estimate D2E/DX2                !
 ! D7    D(3,2,4,5)            180.0            estimate D2E/DX2                !
 ! D8    D(3,2,4,6)              0.0            estimate D2E/DX2                !
 ! D9    D(2,4,6,7)              0.0            estimate D2E/DX2                !
 ! D10   D(2,4,6,8)            180.0            estimate D2E/DX2                !
 ! D11   D(5,4,6,7)            180.0            estimate D2E/DX2                !
 ! D12   D(5,4,6,8)              0.0            estimate D2E/DX2                !
 --------------------------------------------------------------------------------
 Trust Radius=3.00D-01 FncErr=1.00D-07 GrdErr=1.00D-07
 Number of steps in this run=  43 maximum allowed number of steps= 100.
 GradGradGradGradGradGradGradGradGradGradGradGradGradGradGradGradGradGrad

                          Input orientation:                          
 ---------------------------------------------------------------------
 Center     Atomic      Atomic             Coordinates (Angstroms)
 Number     Number       Type             X           Y           Z
 ---------------------------------------------------------------------
      1          6           0       -2.112403   -1.705426    0.000000
      2          6           0       -1.437129   -0.530449    0.000000
      3          1           0       -1.970293    0.397256    0.000000
      4          6           0        0.102871   -0.530449    0.000000
      5          1           0        0.636035   -1.458154    0.000000
      6          6           0        0.785114    0.640495    0.000000
      7          1           0        0.257472    1.571352    0.000000
      8          1           0        1.855096    0.634138    0.000000
      9          9           0       -3.462403   -1.705426    0.000000
     10         17           0       -1.235424   -3.231371    0.000000
 ---------------------------------------------------------------------
                    Distance matrix (angstroms):
                    1          2          3          4          5
     1  C    0.000000
     2  C    1.355200   0.000000
     3  H    2.107479   1.070000   0.000000
     4  C    2.507591   1.540000   2.271265   0.000000
     5  H    2.759539   2.271265   3.199295   1.070000   0.000000
     6  C    3.728131   2.511867   2.766123   1.355200   2.103938
     7  H    4.043956   2.699859   2.518221   2.107479   3.053066
     8  H    4.605932   3.492135   3.832716   2.103938   2.421527
     9  F    1.350000   2.341433   2.578307   3.753898   4.105891
    10  Cl   1.760000   2.708443   3.702292   3.014301   2.578111
                    6          7          8          9         10
     6  C    0.000000
     7  H    1.070000   0.000000
     8  H    1.070000   1.852234   0.000000
     9  F    4.852294   4.957292   5.809420   0.000000
    10  Cl   4.367370   5.029402   4.949088   2.699619   0.000000
 Stoichiometry    C4H4ClF
 Framework group  CS[SG(C4H4ClF)]
 Deg. of freedom    17
 Full point group                 CS      NOp   2
 Largest Abelian subgroup         CS      NOp   2
 Largest concise Abelian subgroup C1      NOp   1
                         Standard orientation:                         
 ---------------------------------------------------------------------
 Center     Atomic      Atomic             Coordinates (Angstroms)
 Number     Number       Type             X           Y           Z
 ---------------------------------------------------------------------
      1          6           0        0.188898   -0.865092    0.000000
      2          6           0       -0.986079   -0.189818    0.000000
      3          1           0       -1.913784   -0.722982    0.000000
      4          6           0       -0.986079    1.350182    0.000000
      5          1           0       -0.058374    1.883346    0.000000
      6          6           0       -2.157024    2.032426    0.000000
      7          1           0       -3.087880    1.504783    0.000000
      8          1           0       -2.150666    3.102407    0.000000
      9          9           0        0.188898   -2.215092    0.000000
     10         17           0        1.714843    0.011888    0.000000
 ---------------------------------------------------------------------
 Rotational constants (GHZ):      4.6033621      1.8043003      1.2962368
 Standard basis: CC-pVDZ (5D, 7F)
 There are    79 symmetry adapted basis functions of A'  symmetry.
 There are    29 symmetry adapted basis functions of A"  symmetry.
 Integral buffers will be    131072 words long.
 Raffenetti 1 integral format.
 Two-electron integral symmetry is turned on.
   108 basis functions,   264 primitive gaussians,   114 cartesian basis functions
    27 alpha electrons       27 beta electrons
       nuclear repulsion energy       260.5614655646 Hartrees.
 NAtoms=   10 NActive=   10 NUniq=   10 SFac= 7.50D-01 NAtFMM=   80 NAOKFM=F Big=F
 One-electron integrals computed using PRISM.
 NBasis=   108 RedAO= T  NBF=    79    29
 NBsUse=   108 1.00D-06 NBFU=    79    29
 Harris functional with IExCor=  205 diagonalized for initial guess.
 ExpMin= 1.22D-01 ExpMax= 1.28D+05 ExpMxC= 1.24D+03 IAcc=2 IRadAn=         0 AccDes= 0.00D+00
 HarFok:  IExCor=  205 AccDes= 0.00D+00 IRadAn=         0 IDoV= 1
 ScaDFX=  1.000000  1.000000  1.000000  1.000000
 FoFCou: FMM=F IPFlag=           0 FMFlag=      100000 FMFlg1=           0
         NFxFlg=           0 DoJE=T BraDBF=F KetDBF=T FulRan=T
         Omega=  0.000000  0.000000  1.000000  0.000000  0.000000 ICntrl=     500 IOpCl=  0
         NMat0=    1 NMatS0=    1 NMatT0=    0 NMatD0=    1 NMtDS0=    0 NMtDT0=    0
         I1Cent=           4 NGrid=           0.
 Petite list used in FoFCou.
 Initial guess orbital symmetries:
       Occupied  (A') (A') (A') (A') (A') (A') (A') (A') (A") (A')
                 (A') (A') (A') (A') (A') (A') (A') (A') (A') (A')
                 (A") (A') (A') (A") (A") (A') (A")
       Virtual   (A") (A") (A') (A') (A') (A') (A') (A') (A') (A')
                 (A') (A') (A') (A") (A') (A') (A") (A') (A') (A')
                 (A") (A") (A') (A") (A') (A') (A') (A') (A") (A")
                 (A') (A') (A') (A") (A') (A") (A') (A') (A") (A")
                 (A') (A') (A') (A') (A") (A') (A") (A') (A') (A")
                 (A') (A') (A') (A") (A') (A') (A") (A') (A') (A")
                 (A") (A') (A') (A') (A") (A") (A') (A') (A') (A')
                 (A') (A') (A') (A') (A') (A') (A") (A') (A") (A')
                 (A')
 The electronic state of the initial guess is 1-A'.
 Requested convergence on RMS density matrix=1.00D-08 within 128 cycles.
 Requested convergence on MAX density matrix=1.00D-06.
 Requested convergence on             energy=1.00D-06.
 No special actions if energy rises.
 Keep R1 ints in memory in canonical form, NReq=22367630.
 SCF Done:  E(RHF) =  -712.689578212     A.U. after   14 cycles
             Convg  =    0.5869D-08             -V/T =  2.0006

 **********************************************************************

            Population analysis using the SCF density.

 **********************************************************************

 Orbital symmetries:
       Occupied  (A') (A') (A') (A') (A') (A') (A') (A') (A') (A")
                 (A') (A') (A') (A') (A') (A') (A') (A') (A") (A')
                 (A') (A') (A') (A") (A') (A") (A")
       Virtual   (A") (A') (A') (A') (A") (A') (A') (A') (A') (A')
                 (A') (A') (A') (A") (A') (A') (A") (A') (A') (A")
                 (A') (A") (A') (A") (A') (A') (A') (A") (A') (A")
                 (A') (A') (A') (A') (A") (A') (A") (A') (A") (A')
                 (A") (A') (A') (A') (A") (A') (A") (A') (A") (A')
                 (A') (A') (A') (A") (A') (A') (A") (A') (A') (A")
                 (A") (A') (A') (A') (A") (A") (A') (A') (A') (A')
                 (A') (A') (A') (A') (A') (A') (A") (A') (A") (A')
                 (A')
 The electronic state is 1-A'.
 Alpha  occ. eigenvalues -- -104.86327 -26.33952 -11.39967 -11.27488 -11.26509
 Alpha  occ. eigenvalues --  -11.24782 -10.58968  -8.05729  -8.05376  -8.05358
 Alpha  occ. eigenvalues --   -1.65119  -1.17328  -1.07912  -1.00373  -0.84356
 Alpha  occ. eigenvalues --   -0.78196  -0.72033  -0.71783  -0.71377  -0.63080
 Alpha  occ. eigenvalues --   -0.59324  -0.56089  -0.52671  -0.52154  -0.48229
 Alpha  occ. eigenvalues --   -0.43246  -0.33233
 Alpha virt. eigenvalues --    0.10760   0.17807   0.20760   0.21086   0.21403
 Alpha virt. eigenvalues --    0.25898   0.27286   0.30800   0.43104   0.45995
 Alpha virt. eigenvalues --    0.48280   0.61667   0.62945   0.64915   0.67681
 Alpha virt. eigenvalues --    0.69284   0.70817   0.71231   0.71956   0.74407
 Alpha virt. eigenvalues --    0.77674   0.78876   0.80674   0.81482   0.86752
 Alpha virt. eigenvalues --    0.89434   0.91697   0.94192   0.95069   0.95911
 Alpha virt. eigenvalues --    0.96463   1.00840   1.06389   1.10764   1.12531
 Alpha virt. eigenvalues --    1.16039   1.18869   1.19982   1.26109   1.27230
 Alpha virt. eigenvalues --    1.28519   1.30285   1.38463   1.44976   1.54170
 Alpha virt. eigenvalues --    1.55944   1.58947   1.63143   1.70943   1.71527
 Alpha virt. eigenvalues --    1.72477   1.73449   1.78641   1.85153   1.87994
 Alpha virt. eigenvalues --    1.88489   1.93651   1.97166   2.01947   2.04350
 Alpha virt. eigenvalues --    2.06945   2.15931   2.23168   2.25448   2.29409
 Alpha virt. eigenvalues --    2.37725   2.40101   2.49085   2.52559   2.62249
 Alpha virt. eigenvalues --    2.63342   2.77408   2.84093   3.03212   3.12857
 Alpha virt. eigenvalues --    3.42876   3.96251   3.98074   4.16483   4.29787
 Alpha virt. eigenvalues --    4.52525
          Condensed to atoms (all electrons):
              1          2          3          4          5          6
     1  C    4.654284   0.588398  -0.018643  -0.068776  -0.007808  -0.000913
     2  C    0.588398   4.898364   0.411925   0.373596  -0.030286  -0.068661
     3  H   -0.018643   0.411925   0.571874  -0.025365   0.003059  -0.004526
     4  C   -0.068776   0.373596  -0.025365   4.771636   0.420348   0.694308
     5  H   -0.007808  -0.030286   0.003059   0.420348   0.583222  -0.021415
     6  C   -0.000913  -0.068661  -0.004526   0.694308  -0.021415   4.570688
     7  H    0.000452  -0.009747   0.001534  -0.025307   0.006167   0.413313
     8  H   -0.000238   0.005023   0.000092  -0.015759  -0.008979   0.406570
     9  F    0.306556  -0.040295  -0.000547   0.002229   0.000092  -0.000047
    10  Cl   0.298729  -0.104878   0.003519  -0.012110   0.000895   0.000603
              7          8          9         10
     1  C    0.000452  -0.000238   0.306556   0.298729
     2  C   -0.009747   0.005023  -0.040295  -0.104878
     3  H    0.001534   0.000092  -0.000547   0.003519
     4  C   -0.025307  -0.015759   0.002229  -0.012110
     5  H    0.006167  -0.008979   0.000092   0.000895
     6  C    0.413313   0.406570  -0.000047   0.000603
     7  H    0.607636  -0.035484  -0.000002  -0.000046
     8  H   -0.035484   0.597582   0.000000  -0.000004
     9  F   -0.000002   0.000000   9.017066  -0.028783
    10  Cl  -0.000046  -0.000004  -0.028783  16.910076
 Mulliken atomic charges:
              1
     1  C    0.247960
     2  C   -0.023437
     3  H    0.057077
     4  C   -0.114800
     5  H    0.054706
     6  C    0.010081
     7  H    0.041485
     8  H    0.051198
     9  F   -0.256271
    10  Cl  -0.068000
 Sum of Mulliken atomic charges =   0.00000
 Mulliken charges with hydrogens summed into heavy atoms:
              1
     1  C    0.247960
     2  C    0.033640
     4  C   -0.060094
     6  C    0.102764
     9  F   -0.256271
    10  Cl  -0.068000
 Sum of Mulliken charges with hydrogens summed into heavy atoms =   0.00000
 Electronic spatial extent (au):  <R**2>=            837.0314
 Charge=              0.0000 electrons
 Dipole moment (field-independent basis, Debye):
    X=             -1.2261    Y=              1.3220    Z=              0.0000  Tot=              1.8030
 Quadrupole moment (field-independent basis, Debye-Ang):
   XX=            -38.2581   YY=            -41.8499   ZZ=            -44.3173
   XY=              0.7321   XZ=              0.0000   YZ=              0.0000
 Traceless Quadrupole moment (field-independent basis, Debye-Ang):
   XX=              3.2170   YY=             -0.3748   ZZ=             -2.8422
   XY=              0.7321   XZ=              0.0000   YZ=              0.0000
 Octapole moment (field-independent basis, Debye-Ang**2):
  XXX=              0.8015  YYY=             -0.5154  ZZZ=              0.0000  XYY=             -0.0291
  XXY=             -2.5499  XXZ=              0.0000  XZZ=              6.8602  YZZ=             -9.1987
  YYZ=              0.0000  XYZ=              0.0000
 Hexadecapole moment (field-independent basis, Debye-Ang**3):
 XXXX=           -504.4574 YYYY=           -447.2856 ZZZZ=            -47.0382 XXXY=            118.3255
 XXXZ=              0.0000 YYYX=            105.9507 YYYZ=              0.0000 ZZZX=              0.0000
 ZZZY=              0.0000 XXYY=           -157.0085 XXZZ=           -106.5521 YYZZ=            -90.5936
 XXYZ=              0.0000 YYXZ=              0.0000 ZZXY=             44.2182
 N-N= 2.605614655646D+02 E-N=-2.210973422423D+03  KE= 7.122904948836D+02
 Symmetry A'   KE= 6.560297361172D+02
 Symmetry A"   KE= 5.626075876644D+01
 Calling FoFJK, ICntrl=      2127 FMM=F ISym2X=1 I1Cent= 0 IOpClX= 0 NMat=1 NMatS=1 NMatT=0.
 ***** Axes restored to original set *****
 -------------------------------------------------------------------
 Center     Atomic                   Forces (Hartrees/Bohr)
 Number     Number              X              Y              Z
 -------------------------------------------------------------------
      1        6           0.009987723    0.048159541    0.000000000
      2        6           0.031876244   -0.061078014    0.000000000
      3        1          -0.005081928    0.005743246    0.000000000
      4        6          -0.024458408    0.054239927    0.000000000
      5        1          -0.000054462   -0.006046738    0.000000000
      6        6          -0.024665640   -0.044079834    0.000000000
      7        1          -0.001206058    0.010572229    0.000000000
      8        1           0.008921215    0.003162431    0.000000000
      9        9           0.035336004   -0.018060894    0.000000000
     10       17          -0.030654690    0.007388106    0.000000000
 -------------------------------------------------------------------
 Cartesian Forces:  Max     0.061078014 RMS     0.023183787

 GradGradGradGradGradGradGradGradGradGradGradGradGradGradGradGradGradGrad
 Berny optimization.
 Internal  Forces:  Max     0.041463351 RMS     0.018092060
 Search for a local minimum.
 Step number   1 out of a maximum of   43
 All quantities printed in internal units (Hartrees-Bohrs-Radians)
 Mixed Optimization -- RFO/linear search
 Second derivative matrix not updated -- first step.
     Eigenvalues ---    0.00237   0.01459   0.01463   0.02681   0.02681
     Eigenvalues ---    0.02681   0.02681   0.16000   0.16000   0.16000
     Eigenvalues ---    0.16000   0.22000   0.22000   0.25000   0.25000
     Eigenvalues ---    0.28519   0.29539   0.37230   0.37230   0.37230
     Eigenvalues ---    0.37230   0.53930   0.53930   0.550211000.00000
     Eigenvalues --- 1000.000001000.000001000.000001000.000001000.00000
     Eigenvalues --- 1000.000001000.000001000.00000
 RFO step:  Lambda=-3.06093980D-02 EMin= 2.36824121D-03
 Linear search not attempted -- first point.
 Maximum step size (   0.300) exceeded in Quadratic search.
    -- Step size scaled by   0.971
 Iteration  1 RMS(Cart)=  0.11735276 RMS(Int)=  0.00952264
 Iteration  2 RMS(Cart)=  0.00998780 RMS(Int)=  0.00001099
 Iteration  3 RMS(Cart)=  0.00002225 RMS(Int)=  0.00000000
 Iteration  4 RMS(Cart)=  0.00000000 RMS(Int)=  0.00000000
 ClnCor:  largest displacement from symmetrization is 4.97D-16 for atom     8.
 Variable       Old X    -DE/DX   Delta X   Delta X   Delta X     New X
                                 (Linear)    (Quad)   (Total)
    R1        2.56096  -0.03981   0.00000  -0.06783  -0.06783   2.49313
    R2        2.55113  -0.03534   0.00000  -0.05907  -0.05907   2.49206
    R3        3.32592  -0.02168   0.00000  -0.06457  -0.06457   3.26135
    R4        2.02201   0.00751   0.00000   0.01810   0.01810   2.04011
    R5        2.91018  -0.04146   0.00000  -0.12748  -0.12748   2.78270
    R6        2.02201   0.00522   0.00000   0.01257   0.01257   2.03458
    R7        2.56096  -0.03475   0.00000  -0.05921  -0.05921   2.50175
    R8        2.02201   0.00979   0.00000   0.02360   0.02360   2.04560
    R9        2.02201   0.00890   0.00000   0.02145   0.02145   2.04346
    A1        2.09241   0.00533   0.00000   0.01845   0.01845   2.11087
    A2        2.09836   0.03541   0.00000   0.12252   0.12252   2.22088
    A3        2.09241  -0.04074   0.00000  -0.14098  -0.14098   1.95144
    A4        2.09836  -0.01615   0.00000  -0.06449  -0.06449   2.03386
    A5        2.09241   0.02919   0.00000   0.11308   0.11308   2.20550
    A6        2.09241  -0.01303   0.00000  -0.04859  -0.04859   2.04383
    A7        2.09241  -0.00530   0.00000  -0.02432  -0.02432   2.06810
    A8        2.09836   0.00442   0.00000   0.01712   0.01712   2.11547
    A9        2.09241   0.00088   0.00000   0.00720   0.00720   2.09962
   A10        2.09836   0.00345   0.00000   0.01755   0.01755   2.11591
   A11        2.09241   0.00153   0.00000   0.00778   0.00778   2.10020
   A12        2.09241  -0.00497   0.00000  -0.02534  -0.02534   2.06708
    D1        0.00000   0.00000   0.00000   0.00000   0.00000   0.00000
    D2        3.14159   0.00000   0.00000   0.00000   0.00000   3.14159
    D3        3.14159   0.00000   0.00000   0.00000   0.00000   3.14159
    D4        0.00000   0.00000   0.00000   0.00000   0.00000   0.00000
    D5        0.00000   0.00000   0.00000   0.00000   0.00000   0.00000
    D6        3.14159   0.00000   0.00000   0.00000   0.00000   3.14159
    D7        3.14159   0.00000   0.00000   0.00000   0.00000   3.14159
    D8        0.00000   0.00000   0.00000   0.00000   0.00000   0.00000
    D9        0.00000   0.00000   0.00000   0.00000   0.00000   0.00000
   D10        3.14159   0.00000   0.00000   0.00000   0.00000   3.14159
   D11        3.14159   0.00000   0.00000   0.00000   0.00000   3.14159
   D12        0.00000   0.00000   0.00000   0.00000   0.00000   0.00000
         Item               Value     Threshold  Converged?
 Maximum Force            0.041463     0.000450     NO 
 RMS     Force            0.018092     0.000300     NO 
 Maximum Displacement     0.465151     0.001800     NO 
 RMS     Displacement     0.115165     0.001200     NO 
 Predicted change in Energy=-1.666920D-02
 GradGradGradGradGradGradGradGradGradGradGradGradGradGradGradGradGradGrad

                          Input orientation:                          
 ---------------------------------------------------------------------
 Center     Atomic      Atomic             Coordinates (Angstroms)
 Number     Number       Type             X           Y           Z
 ---------------------------------------------------------------------
      1          6           0       -2.063514   -1.701054    0.000000
      2          6           0       -1.344062   -0.595178    0.000000
      3          1           0       -1.890712    0.335770    0.000000
      4          6           0        0.126008   -0.509932    0.000000
      5          1           0        0.693545   -1.424853    0.000000
      6          6           0        0.745262    0.660175    0.000000
      7          1           0        0.189714    1.589231    0.000000
      8          1           0        1.825632    0.706275    0.000000
      9          9           0       -3.381367   -1.652659    0.000000
     10         17           0       -1.481571   -3.325810    0.000000
 ---------------------------------------------------------------------
                    Distance matrix (angstroms):
                    1          2          3          4          5
     1  C    0.000000
     2  C    1.319308   0.000000
     3  H    2.044141   1.079579   0.000000
     4  C    2.492544   1.472539   2.186864   0.000000
     5  H    2.770859   2.200046   3.127008   1.076651   0.000000
     6  C    3.669418   2.437455   2.655862   1.323868   2.085670
     7  H    3.987858   2.669103   2.428855   2.100130   3.055904
     8  H    4.573913   3.426475   3.734767   2.089947   2.413157
     9  F    1.318741   2.295404   2.485136   3.688835   4.081274
    10  Cl   1.725830   2.734093   3.684368   3.242449   2.888731
                    6          7          8          9         10
     6  C    0.000000
     7  H    1.082487   0.000000
     8  H    1.081352   1.858989   0.000000
     9  F    4.730568   4.823118   5.716415   0.000000
    10  Cl   4.565837   5.191418   5.214911   2.531533   0.000000
 Stoichiometry    C4H4ClF
 Framework group  CS[SG(C4H4ClF)]
 Deg. of freedom    17
 Full point group                 CS      NOp   2
 Largest Abelian subgroup         CS      NOp   2
 Largest concise Abelian subgroup C1      NOp   1
                         Standard orientation:                         
 ---------------------------------------------------------------------
 Center     Atomic      Atomic             Coordinates (Angstroms)
 Number     Number       Type             X           Y           Z
 ---------------------------------------------------------------------
      1          6           0        0.000000    0.783899    0.000000
      2          6           0       -0.932721   -0.149164    0.000000
      3          1           0       -1.956763    0.192637    0.000000
      4          6           0       -0.711383   -1.604974    0.000000
      5          1           0        0.301309   -1.970529    0.000000
      6          6           0       -1.727710   -2.453329    0.000000
      7          1           0       -2.751746   -2.102432    0.000000
      8          1           0       -1.548858   -3.519788    0.000000
      9          9           0       -0.320522    2.063095    0.000000
     10         17           0        1.710097    0.551392    0.000000
 ---------------------------------------------------------------------
 Rotational constants (GHZ):      5.2447187      1.7077861      1.2882922
 Standard basis: CC-pVDZ (5D, 7F)
 There are    79 symmetry adapted basis functions of A'  symmetry.
 There are    29 symmetry adapted basis functions of A"  symmetry.
 Integral buffers will be    131072 words long.
 Raffenetti 1 integral format.
 Two-electron integral symmetry is turned on.
   108 basis functions,   264 primitive gaussians,   114 cartesian basis functions
    27 alpha electrons       27 beta electrons
       nuclear repulsion energy       263.6225111819 Hartrees.
 NAtoms=   10 NActive=   10 NUniq=   10 SFac= 7.50D-01 NAtFMM=   80 NAOKFM=F Big=F
 One-electron integrals computed using PRISM.
 NBasis=   108 RedAO= T  NBF=    79    29
 NBsUse=   108 1.00D-06 NBFU=    79    29
 Initial guess read from the read-write file.
 B after Tr=     0.000000    0.000000    0.000000
         Rot=    1.000000    0.000000    0.000000    0.000000 Ang=   0.00 deg.
 Initial guess orbital symmetries:
       Occupied  (A') (A') (A') (A') (A') (A') (A') (A') (A') (A")
                 (A') (A') (A') (A') (A') (A') (A') (A') (A") (A')
                 (A') (A') (A') (A") (A') (A") (A")
       Virtual   (A") (A') (A') (A') (A") (A') (A') (A') (A') (A')
                 (A') (A') (A') (A") (A') (A') (A") (A') (A') (A")
                 (A') (A") (A') (A") (A') (A') (A') (A") (A') (A")
                 (A') (A') (A') (A') (A") (A') (A") (A') (A") (A')
                 (A") (A') (A') (A') (A") (A') (A") (A') (A") (A')
                 (A') (A') (A') (A") (A') (A') (A") (A') (A') (A")
                 (A") (A') (A') (A') (A") (A") (A') (A') (A') (A')
                 (A') (A') (A') (A') (A') (A') (A") (A') (A") (A')
                 (A')
 Harris functional with IExCor=  205 diagonalized for initial guess.
 ExpMin= 1.22D-01 ExpMax= 1.28D+05 ExpMxC= 1.24D+03 IAcc=2 IRadAn=         0 AccDes= 0.00D+00
 HarFok:  IExCor=  205 AccDes= 0.00D+00 IRadAn=         0 IDoV= 1
 ScaDFX=  1.000000  1.000000  1.000000  1.000000
 FoFCou: FMM=F IPFlag=           0 FMFlag=      100000 FMFlg1=           0
         NFxFlg=           0 DoJE=T BraDBF=F KetDBF=T FulRan=T
         Omega=  0.000000  0.000000  1.000000  0.000000  0.000000 ICntrl=     500 IOpCl=  0
         NMat0=    1 NMatS0=    1 NMatT0=    0 NMatD0=    1 NMtDS0=    0 NMtDT0=    0
         I1Cent=           4 NGrid=           0.
 Petite list used in FoFCou.
 Requested convergence on RMS density matrix=1.00D-08 within 128 cycles.
 Requested convergence on MAX density matrix=1.00D-06.
 Requested convergence on             energy=1.00D-06.
 No special actions if energy rises.
 Keep R1 ints in memory in canonical form, NReq=22367630.
 SCF Done:  E(RHF) =  -712.705123314     A.U. after   15 cycles
             Convg  =    0.3110D-08             -V/T =  2.0000
 Calling FoFJK, ICntrl=      2127 FMM=F ISym2X=1 I1Cent= 0 IOpClX= 0 NMat=1 NMatS=1 NMatT=0.
 ***** Axes restored to original set *****
 -------------------------------------------------------------------
 Center     Atomic                   Forces (Hartrees/Bohr)
 Number     Number              X              Y              Z
 -------------------------------------------------------------------
      1        6          -0.001497368    0.005166640    0.000000000
      2        6           0.008879648   -0.007358156    0.000000000
      3        1          -0.003204225    0.000162776    0.000000000
      4        6          -0.010603436    0.003181809    0.000000000
      5        1           0.001212014   -0.003833608    0.000000000
      6        6           0.003125336   -0.001777263    0.000000000
      7        1           0.001663729    0.001534323    0.000000000
      8        1           0.000182214    0.002601731    0.000000000
      9        9           0.001412442   -0.003346689    0.000000000
     10       17          -0.001170355    0.003668437    0.000000000
 -------------------------------------------------------------------
 Cartesian Forces:  Max     0.010603436 RMS     0.003482413

 GradGradGradGradGradGradGradGradGradGradGradGradGradGradGradGradGradGrad
 Berny optimization.
 Using GEDIIS/GDIIS optimizer.
 Internal  Forces:  Max     0.005650672 RMS     0.002575903
 Search for a local minimum.
 Step number   2 out of a maximum of   43
 All quantities printed in internal units (Hartrees-Bohrs-Radians)
 Mixed Optimization -- RFO/linear search
 Update second derivatives using D2CorX and points    1    2
 DE= -1.55D-02 DEPred=-1.67D-02 R= 9.33D-01
 SS=  1.41D+00  RLast= 3.00D-01 DXNew= 5.0454D-01 9.0000D-01
 Trust test= 9.33D-01 RLast= 3.00D-01 DXMaxT set to 5.05D-01
 Use linear search instead of GDIIS.
     Eigenvalues ---    0.00237   0.01453   0.01481   0.02681   0.02681
     Eigenvalues ---    0.02681   0.02681   0.15720   0.16000   0.16000
     Eigenvalues ---    0.16016   0.21404   0.22645   0.24435   0.27097
     Eigenvalues ---    0.29277   0.29380   0.37014   0.37230   0.37230
     Eigenvalues ---    0.37412   0.53211   0.54698   0.562811000.00000
     Eigenvalues --- 1000.000001000.000001000.000001000.000001000.00000
     Eigenvalues --- 1000.000001000.000001000.00000
 RFO step:  Lambda=-8.59961347D-04 EMin= 2.36824121D-03
 Quartic linear search produced a step of  0.04472.
 Iteration  1 RMS(Cart)=  0.02728127 RMS(Int)=  0.00031252
 Iteration  2 RMS(Cart)=  0.00036027 RMS(Int)=  0.00000001
 Iteration  3 RMS(Cart)=  0.00000001 RMS(Int)=  0.00000000
 ClnCor:  largest displacement from symmetrization is 1.79D-10 for atom     1.
 Variable       Old X    -DE/DX   Delta X   Delta X   Delta X     New X
                                 (Linear)    (Quad)   (Total)
    R1        2.49313  -0.00392  -0.00303  -0.00620  -0.00923   2.48390
    R2        2.49206  -0.00153  -0.00264  -0.00171  -0.00435   2.48771
    R3        3.26135  -0.00385  -0.00289  -0.01211  -0.01499   3.24635
    R4        2.04011   0.00176   0.00081   0.00454   0.00535   2.04546
    R5        2.78270  -0.00431  -0.00570  -0.01284  -0.01854   2.76415
    R6        2.03458   0.00390   0.00056   0.01064   0.01120   2.04577
    R7        2.50175   0.00441  -0.00265   0.00973   0.00708   2.50883
    R8        2.04560   0.00046   0.00106   0.00079   0.00184   2.04745
    R9        2.04346   0.00029   0.00096   0.00036   0.00132   2.04478
    A1        2.11087   0.00562   0.00083   0.02296   0.02378   2.13465
    A2        2.22088  -0.00303   0.00548  -0.01550  -0.01002   2.21086
    A3        1.95144  -0.00259  -0.00630  -0.00745  -0.01376   1.93768
    A4        2.03386  -0.00230  -0.00288  -0.01412  -0.01700   2.01686
    A5        2.20550  -0.00086   0.00506  -0.00684  -0.00179   2.20371
    A6        2.04383   0.00317  -0.00217   0.02096   0.01879   2.06262
    A7        2.06810  -0.00383  -0.00109  -0.01928  -0.02036   2.04773
    A8        2.11547   0.00565   0.00077   0.02631   0.02707   2.14255
    A9        2.09962  -0.00182   0.00032  -0.00703  -0.00671   2.09290
   A10        2.11591   0.00126   0.00078   0.00768   0.00847   2.12438
   A11        2.10020   0.00202   0.00035   0.01291   0.01326   2.11345
   A12        2.06708  -0.00328  -0.00113  -0.02059  -0.02172   2.04536
    D1        0.00000   0.00000   0.00000   0.00000   0.00000   0.00000
    D2        3.14159   0.00000   0.00000   0.00000   0.00000   3.14159
    D3        3.14159   0.00000   0.00000   0.00000   0.00000   3.14159
    D4        0.00000   0.00000   0.00000   0.00000   0.00000   0.00000
    D5        0.00000   0.00000   0.00000   0.00000   0.00000   0.00000
    D6        3.14159   0.00000   0.00000   0.00000   0.00000   3.14159
    D7        3.14159   0.00000   0.00000   0.00000   0.00000   3.14159
    D8        0.00000   0.00000   0.00000   0.00000   0.00000   0.00000
    D9        0.00000   0.00000   0.00000   0.00000   0.00000   0.00000
   D10        3.14159   0.00000   0.00000   0.00000   0.00000   3.14159
   D11        3.14159   0.00000   0.00000   0.00000   0.00000   3.14159
   D12        0.00000   0.00000   0.00000   0.00000   0.00000   0.00000
         Item               Value     Threshold  Converged?
 Maximum Force            0.005651     0.000450     NO 
 RMS     Force            0.002576     0.000300     NO 
 Maximum Displacement     0.076035     0.001800     NO 
 RMS     Displacement     0.027274     0.001200     NO 
 Predicted change in Energy=-4.610032D-04
 GradGradGradGradGradGradGradGradGradGradGradGradGradGradGradGradGradGrad

                          Input orientation:                          
 ---------------------------------------------------------------------
 Center     Atomic      Atomic             Coordinates (Angstroms)
 Number     Number       Type             X           Y           Z
 ---------------------------------------------------------------------
      1          6           0       -2.063120   -1.695835    0.000000
      2          6           0       -1.352291   -0.590197    0.000000
      3          1           0       -1.921150    0.330680    0.000000
      4          6           0        0.107666   -0.500245    0.000000
      5          1           0        0.662838   -1.429630    0.000000
      6          6           0        0.756030    0.658285    0.000000
      7          1           0        0.229950    1.605454    0.000000
      8          1           0        1.837510    0.693379    0.000000
      9          9           0       -3.379520   -1.685930    0.000000
     10         17           0       -1.458978   -3.303995    0.000000
 ---------------------------------------------------------------------
                    Distance matrix (angstroms):
                    1          2          3          4          5
     1  C    0.000000
     2  C    1.314425   0.000000
     3  H    2.031483   1.082412   0.000000
     4  C    2.478255   1.462726   2.192380   0.000000
     5  H    2.738925   2.182978   3.126610   1.082577   0.000000
     6  C    3.672804   2.450251   2.697150   1.327617   2.089994
     7  H    4.019538   2.706358   2.500456   2.109247   3.065800
     8  H    4.574195   3.438372   3.776119   2.101689   2.426319
     9  F    1.316438   2.304406   2.488686   3.683248   4.050475
    10  Cl   1.717895   2.715894   3.663941   3.211758   2.831139
                    6          7          8          9         10
     6  C    0.000000
     7  H    1.083462   0.000000
     8  H    1.082049   1.848278   0.000000
     9  F    4.753748   4.884822   5.733979   0.000000
    10  Cl   4.539375   5.191837   5.181297   2.511297   0.000000
 Stoichiometry    C4H4ClF
 Framework group  CS[SG(C4H4ClF)]
 Deg. of freedom    17
 Full point group                 CS      NOp   2
 Largest Abelian subgroup         CS      NOp   2
 Largest concise Abelian subgroup C1      NOp   1
                         Standard orientation:                         
 ---------------------------------------------------------------------
 Center     Atomic      Atomic             Coordinates (Angstroms)
 Number     Number       Type             X           Y           Z
 ---------------------------------------------------------------------
      1          6           0        0.000000    0.788521    0.000000
      2          6           0       -0.937834   -0.132446    0.000000
      3          1           0       -1.955211    0.237094    0.000000
      4          6           0       -0.728778   -1.580155    0.000000
      5          1           0        0.294143   -1.934564    0.000000
      6          6           0       -1.731109   -2.450730    0.000000
      7          1           0       -2.765522   -2.128424    0.000000
      8          1           0       -1.545370   -3.516719    0.000000
      9          9           0       -0.277607    2.075356    0.000000
     10         17           0        1.697456    0.524310    0.000000
 ---------------------------------------------------------------------
 Rotational constants (GHZ):      5.3042040      1.7162150      1.2966682
 Standard basis: CC-pVDZ (5D, 7F)
 There are    79 symmetry adapted basis functions of A'  symmetry.
 There are    29 symmetry adapted basis functions of A"  symmetry.
 Integral buffers will be    131072 words long.
 Raffenetti 1 integral format.
 Two-electron integral symmetry is turned on.
   108 basis functions,   264 primitive gaussians,   114 cartesian basis functions
    27 alpha electrons       27 beta electrons
       nuclear repulsion energy       264.4659959422 Hartrees.
 NAtoms=   10 NActive=   10 NUniq=   10 SFac= 7.50D-01 NAtFMM=   80 NAOKFM=F Big=F
 One-electron integrals computed using PRISM.
 NBasis=   108 RedAO= T  NBF=    79    29
 NBsUse=   108 1.00D-06 NBFU=    79    29
 Initial guess read from the read-write file.
 B after Tr=     0.000000    0.000000    0.000000
         Rot=    1.000000    0.000000    0.000000    0.000000 Ang=   0.00 deg.
 Initial guess orbital symmetries:
       Occupied  (A') (A') (A') (A') (A') (A') (A') (A') (A') (A")
                 (A') (A') (A') (A') (A') (A') (A') (A') (A") (A')
                 (A') (A') (A') (A") (A') (A") (A")
       Virtual   (A") (A') (A') (A') (A") (A') (A') (A') (A') (A')
                 (A') (A') (A') (A") (A') (A') (A") (A') (A') (A")
                 (A') (A") (A") (A') (A') (A') (A') (A") (A') (A")
                 (A') (A') (A') (A') (A") (A') (A") (A') (A') (A")
                 (A") (A') (A') (A') (A') (A") (A") (A') (A') (A")
                 (A') (A') (A') (A") (A') (A') (A") (A') (A') (A")
                 (A") (A') (A') (A') (A") (A") (A') (A') (A') (A')
                 (A') (A') (A') (A') (A') (A') (A") (A') (A") (A')
                 (A')
 Harris functional with IExCor=  205 diagonalized for initial guess.
 ExpMin= 1.22D-01 ExpMax= 1.28D+05 ExpMxC= 1.24D+03 IAcc=2 IRadAn=         0 AccDes= 0.00D+00
 HarFok:  IExCor=  205 AccDes= 0.00D+00 IRadAn=         0 IDoV= 1
 ScaDFX=  1.000000  1.000000  1.000000  1.000000
 FoFCou: FMM=F IPFlag=           0 FMFlag=      100000 FMFlg1=           0
         NFxFlg=           0 DoJE=T BraDBF=F KetDBF=T FulRan=T
         Omega=  0.000000  0.000000  1.000000  0.000000  0.000000 ICntrl=     500 IOpCl=  0
         NMat0=    1 NMatS0=    1 NMatT0=    0 NMatD0=    1 NMtDS0=    0 NMtDT0=    0
         I1Cent=           4 NGrid=           0.
 Petite list used in FoFCou.
 Requested convergence on RMS density matrix=1.00D-08 within 128 cycles.
 Requested convergence on MAX density matrix=1.00D-06.
 Requested convergence on             energy=1.00D-06.
 No special actions if energy rises.
 Keep R1 ints in memory in canonical form, NReq=22367630.
 SCF Done:  E(RHF) =  -712.705521279     A.U. after   11 cycles
             Convg  =    0.6834D-08             -V/T =  2.0000
 Calling FoFJK, ICntrl=      2127 FMM=F ISym2X=1 I1Cent= 0 IOpClX= 0 NMat=1 NMatS=1 NMatT=0.
 ***** Axes restored to original set *****
 -------------------------------------------------------------------
 Center     Atomic                   Forces (Hartrees/Bohr)
 Number     Number              X              Y              Z
 -------------------------------------------------------------------
      1        6          -0.002837673   -0.002062903    0.000000000
      2        6           0.000452880    0.003539711    0.000000000
      3        1          -0.000503178   -0.000089591    0.000000000
      4        6           0.002074550    0.001429242    0.000000000
      5        1           0.000046592    0.000504908    0.000000000
      6        6          -0.000609337   -0.002396842    0.000000000
      7        1           0.000204106    0.000269951    0.000000000
      8        1          -0.000296815    0.000144572    0.000000000
      9        9           0.000224964    0.001090040    0.000000000
     10       17           0.001243910   -0.002429088    0.000000000
 -------------------------------------------------------------------
 Cartesian Forces:  Max     0.003539711 RMS     0.001250782

 GradGradGradGradGradGradGradGradGradGradGradGradGradGradGradGradGradGrad
 Berny optimization.
 Using GEDIIS/GDIIS optimizer.
 Internal  Forces:  Max     0.003601809 RMS     0.000989435
 Search for a local minimum.
 Step number   3 out of a maximum of   43
 All quantities printed in internal units (Hartrees-Bohrs-Radians)
 Mixed Optimization -- En-DIIS/RFO-DIIS
 Update second derivatives using D2CorX and points    1    2    3
 DE= -3.98D-04 DEPred=-4.61D-04 R= 8.63D-01
 SS=  1.41D+00  RLast= 6.55D-02 DXNew= 8.4853D-01 1.9661D-01
 Trust test= 8.63D-01 RLast= 6.55D-02 DXMaxT set to 5.05D-01
 Use linear search instead of GDIIS.
     Eigenvalues ---    0.00237   0.01431   0.01489   0.02681   0.02681
     Eigenvalues ---    0.02681   0.02681   0.14291   0.16000   0.16009
     Eigenvalues ---    0.16082   0.20555   0.22562   0.25739   0.27127
     Eigenvalues ---    0.29208   0.32783   0.36907   0.37230   0.37317
     Eigenvalues ---    0.37450   0.54540   0.55537   0.607011000.00000
     Eigenvalues --- 1000.000001000.000001000.000001000.000001000.00000
     Eigenvalues --- 1000.000001000.000001000.00000
 RFO step:  Lambda=-5.61254255D-05 EMin= 2.36824121D-03
 Quartic linear search produced a step of -0.11831.
 Iteration  1 RMS(Cart)=  0.00423003 RMS(Int)=  0.00000623
 Iteration  2 RMS(Cart)=  0.00000677 RMS(Int)=  0.00000000
 Iteration  3 RMS(Cart)=  0.00000000 RMS(Int)=  0.00000000
 ClnCor:  largest displacement from symmetrization is 1.24D-11 for atom     8.
 Variable       Old X    -DE/DX   Delta X   Delta X   Delta X     New X
                                 (Linear)    (Quad)   (Total)
    R1        2.48390   0.00360   0.00109   0.00428   0.00537   2.48927
    R2        2.48771  -0.00022   0.00052  -0.00109  -0.00057   2.48713
    R3        3.24635   0.00271   0.00177   0.00549   0.00726   3.25361
    R4        2.04546   0.00019  -0.00063   0.00131   0.00067   2.04614
    R5        2.76415   0.00141   0.00219   0.00112   0.00332   2.76747
    R6        2.04577  -0.00041  -0.00132   0.00082  -0.00051   2.04527
    R7        2.50883  -0.00207  -0.00084  -0.00230  -0.00314   2.50570
    R8        2.04745   0.00014  -0.00022   0.00065   0.00043   2.04787
    R9        2.04478  -0.00029  -0.00016  -0.00044  -0.00060   2.04418
    A1        2.13465  -0.00147  -0.00281  -0.00135  -0.00416   2.13049
    A2        2.21086   0.00023   0.00119  -0.00045   0.00073   2.21159
    A3        1.93768   0.00124   0.00163   0.00180   0.00343   1.94111
    A4        2.01686  -0.00032   0.00201  -0.00486  -0.00285   2.01401
    A5        2.20371  -0.00032   0.00021  -0.00124  -0.00103   2.20268
    A6        2.06262   0.00065  -0.00222   0.00610   0.00388   2.06650
    A7        2.04773   0.00000   0.00241  -0.00281  -0.00040   2.04733
    A8        2.14255   0.00060  -0.00320   0.00667   0.00347   2.14602
    A9        2.09290  -0.00061   0.00079  -0.00386  -0.00307   2.08984
   A10        2.12438   0.00032  -0.00100   0.00312   0.00212   2.12650
   A11        2.11345   0.00000  -0.00157   0.00211   0.00054   2.11399
   A12        2.04536  -0.00032   0.00257  -0.00523  -0.00266   2.04270
    D1        0.00000   0.00000   0.00000   0.00000   0.00000   0.00000
    D2        3.14159   0.00000   0.00000   0.00000   0.00000   3.14159
    D3        3.14159   0.00000   0.00000   0.00000   0.00000   3.14159
    D4        0.00000   0.00000   0.00000   0.00000   0.00000   0.00000
    D5        0.00000   0.00000   0.00000   0.00000   0.00000   0.00000
    D6        3.14159   0.00000   0.00000   0.00000   0.00000   3.14159
    D7        3.14159   0.00000   0.00000   0.00000   0.00000   3.14159
    D8        0.00000   0.00000   0.00000   0.00000   0.00000   0.00000
    D9        0.00000   0.00000   0.00000   0.00000   0.00000   0.00000
   D10        3.14159   0.00000   0.00000   0.00000   0.00000   3.14159
   D11        3.14159   0.00000   0.00000   0.00000   0.00000   3.14159
   D12        0.00000   0.00000   0.00000   0.00000   0.00000   0.00000
         Item               Value     Threshold  Converged?
 Maximum Force            0.003602     0.000450     NO 
 RMS     Force            0.000989     0.000300     NO 
 Maximum Displacement     0.012503     0.001800     NO 
 RMS     Displacement     0.004229     0.001200     NO 
 Predicted change in Energy=-3.536998D-05
 GradGradGradGradGradGradGradGradGradGradGradGradGradGradGradGradGradGrad

                          Input orientation:                          
 ---------------------------------------------------------------------
 Center     Atomic      Atomic             Coordinates (Angstroms)
 Number     Number       Type             X           Y           Z
 ---------------------------------------------------------------------
      1          6           0       -2.064497   -1.698142    0.000000
      2          6           0       -1.354301   -0.588722    0.000000
      3          1           0       -1.927767    0.329714    0.000000
      4          6           0        0.107324   -0.497309    0.000000
      5          1           0        0.662843   -1.426174    0.000000
      6          6           0        0.757822    0.658121    0.000000
      7          1           0        0.236057    1.607933    0.000000
      8          1           0        1.839055    0.691036    0.000000
      9          9           0       -3.380570   -1.685336    0.000000
     10         17           0       -1.457030   -3.309155    0.000000
 ---------------------------------------------------------------------
                    Distance matrix (angstroms):
                    1          2          3          4          5
     1  C    0.000000
     2  C    1.317267   0.000000
     3  H    2.032461   1.082768   0.000000
     4  C    2.481695   1.464481   2.196716   0.000000
     5  H    2.740867   2.184078   3.129601   1.082308   0.000000
     6  C    3.676610   2.452688   2.705593   1.325958   2.086458
     7  H    4.027739   2.711923   2.513161   2.109174   3.063976
     8  H    4.576668   3.440247   3.784111   2.100251   2.421994
     9  F    1.316135   2.303981   2.484162   3.684673   4.051710
    10  Cl   1.721737   2.722372   3.669191   3.217714   2.835398
                    6          7          8          9         10
     6  C    0.000000
     7  H    1.083689   0.000000
     8  H    1.081734   1.846700   0.000000
     9  F    4.755846   4.891381   5.735122   0.000000
    10  Cl   4.543660   5.200413   5.183214   2.517299   0.000000
 Stoichiometry    C4H4ClF
 Framework group  CS[SG(C4H4ClF)]
 Deg. of freedom    17
 Full point group                 CS      NOp   2
 Largest Abelian subgroup         CS      NOp   2
 Largest concise Abelian subgroup C1      NOp   1
                         Standard orientation:                         
 ---------------------------------------------------------------------
 Center     Atomic      Atomic             Coordinates (Angstroms)
 Number     Number       Type             X           Y           Z
 ---------------------------------------------------------------------
      1          6           0        0.000000    0.790320    0.000000
      2          6           0       -0.940856   -0.131625    0.000000
      3          1           0       -1.957109    0.242030    0.000000
      4          6           0       -0.731618   -1.581081    0.000000
      5          1           0        0.291176   -1.935036    0.000000
      6          6           0       -1.729713   -2.453990    0.000000
      7          1           0       -2.766113   -2.137358    0.000000
      8          1           0       -1.540956   -3.519128    0.000000
      9          9           0       -0.281510    2.075996    0.000000
     10         17           0        1.701160    0.524928    0.000000
 ---------------------------------------------------------------------
 Rotational constants (GHZ):      5.2796286      1.7134035      1.2935925
 Standard basis: CC-pVDZ (5D, 7F)
 There are    79 symmetry adapted basis functions of A'  symmetry.
 There are    29 symmetry adapted basis functions of A"  symmetry.
 Integral buffers will be    131072 words long.
 Raffenetti 1 integral format.
 Two-electron integral symmetry is turned on.
   108 basis functions,   264 primitive gaussians,   114 cartesian basis functions
    27 alpha electrons       27 beta electrons
       nuclear repulsion energy       264.1573851790 Hartrees.
 NAtoms=   10 NActive=   10 NUniq=   10 SFac= 7.50D-01 NAtFMM=   80 NAOKFM=F Big=F
 One-electron integrals computed using PRISM.
 NBasis=   108 RedAO= T  NBF=    79    29
 NBsUse=   108 1.00D-06 NBFU=    79    29
 Initial guess read from the read-write file.
 B after Tr=     0.000000    0.000000    0.000000
         Rot=    1.000000    0.000000    0.000000    0.000000 Ang=   0.00 deg.
 Initial guess orbital symmetries:
       Occupied  (A') (A') (A') (A') (A') (A') (A') (A') (A') (A")
                 (A') (A') (A') (A') (A') (A') (A') (A') (A") (A')
                 (A') (A') (A") (A') (A') (A") (A")
       Virtual   (A") (A') (A') (A') (A") (A') (A') (A') (A') (A')
                 (A') (A') (A') (A") (A') (A') (A") (A') (A') (A")
                 (A') (A") (A") (A') (A') (A') (A') (A") (A') (A")
                 (A') (A') (A') (A') (A") (A') (A") (A') (A') (A")
                 (A") (A') (A') (A') (A') (A") (A") (A') (A") (A')
                 (A') (A') (A') (A") (A') (A') (A") (A') (A') (A")
                 (A") (A') (A') (A') (A") (A") (A') (A') (A') (A')
                 (A') (A') (A') (A') (A') (A') (A") (A') (A") (A')
                 (A')
 Requested convergence on RMS density matrix=1.00D-08 within 128 cycles.
 Requested convergence on MAX density matrix=1.00D-06.
 Requested convergence on             energy=1.00D-06.
 No special actions if energy rises.
 Keep R1 ints in memory in canonical form, NReq=22367630.
 SCF Done:  E(RHF) =  -712.705557692     A.U. after    9 cycles
             Convg  =    0.4453D-08             -V/T =  2.0000
 Calling FoFJK, ICntrl=      2127 FMM=F ISym2X=1 I1Cent= 0 IOpClX= 0 NMat=1 NMatS=1 NMatT=0.
 ***** Axes restored to original set *****
 -------------------------------------------------------------------
 Center     Atomic                   Forces (Hartrees/Bohr)
 Number     Number              X              Y              Z
 -------------------------------------------------------------------
      1        6          -0.000109963    0.000176441    0.000000000
      2        6          -0.000144919    0.000210537    0.000000000
      3        1          -0.000062147   -0.000164462    0.000000000
      4        6           0.000105720   -0.000415484    0.000000000
      5        1          -0.000107038    0.000119597    0.000000000
      6        6          -0.000139870    0.000004327    0.000000000
      7        1           0.000063932    0.000072458    0.000000000
      8        1          -0.000026533   -0.000019227    0.000000000
      9        9           0.000265337    0.000146587    0.000000000
     10       17           0.000155483   -0.000130775    0.000000000
 -------------------------------------------------------------------
 Cartesian Forces:  Max     0.000415484 RMS     0.000130663

 GradGradGradGradGradGradGradGradGradGradGradGradGradGradGradGradGradGrad
 Berny optimization.
 Using GEDIIS/GDIIS optimizer.
 Internal  Forces:  Max     0.000329515 RMS     0.000132019
 Search for a local minimum.
 Step number   4 out of a maximum of   43
 All quantities printed in internal units (Hartrees-Bohrs-Radians)
 Mixed Optimization -- En-DIIS/RFO-DIIS
 Swaping is turned off.
 Update second derivatives using D2CorX and points    1    2    3    4
 DE= -3.64D-05 DEPred=-3.54D-05 R= 1.03D+00
 SS=  1.41D+00  RLast= 1.38D-02 DXNew= 8.4853D-01 4.1495D-02
 Trust test= 1.03D+00 RLast= 1.38D-02 DXMaxT set to 5.05D-01
     Eigenvalues ---    0.00237   0.01427   0.01487   0.02681   0.02681
     Eigenvalues ---    0.02681   0.02681   0.13427   0.16004   0.16015
     Eigenvalues ---    0.16095   0.20793   0.22487   0.25352   0.27103
     Eigenvalues ---    0.29612   0.31881   0.37067   0.37221   0.37298
     Eigenvalues ---    0.37426   0.54364   0.56688   0.652381000.00000
     Eigenvalues --- 1000.000001000.000001000.000001000.000001000.00000
     Eigenvalues --- 1000.000001000.000001000.00000
 En-DIIS/RFO-DIIS IScMMF=        0 using points:     4    3
 RFO step:  Lambda=-1.09073657D-06.
 DIIS coeffs:      1.03275     -0.03275
 Iteration  1 RMS(Cart)=  0.00153565 RMS(Int)=  0.00000079
 Iteration  2 RMS(Cart)=  0.00000100 RMS(Int)=  0.00000000
 Iteration  3 RMS(Cart)=  0.00000000 RMS(Int)=  0.00000000
 ClnCor:  largest displacement from symmetrization is 8.31D-13 for atom     6.
 Variable       Old X    -DE/DX   Delta X   Delta X   Delta X     New X
                                  (DIIS)     (GDIIS)  (Total)
    R1        2.48927  -0.00033   0.00018  -0.00069  -0.00052   2.48876
    R2        2.48713  -0.00026  -0.00002  -0.00056  -0.00057   2.48656
    R3        3.25361   0.00018   0.00024   0.00055   0.00079   3.25440
    R4        2.04614  -0.00011   0.00002  -0.00027  -0.00024   2.04589
    R5        2.76747  -0.00012   0.00011  -0.00058  -0.00047   2.76700
    R6        2.04527  -0.00016  -0.00002  -0.00040  -0.00042   2.04485
    R7        2.50570   0.00000  -0.00010  -0.00003  -0.00013   2.50556
    R8        2.04787   0.00003   0.00001   0.00012   0.00013   2.04801
    R9        2.04418  -0.00003  -0.00002  -0.00006  -0.00008   2.04410
    A1        2.13049  -0.00014  -0.00014  -0.00051  -0.00064   2.12984
    A2        2.21159  -0.00009   0.00002  -0.00030  -0.00028   2.21131
    A3        1.94111   0.00023   0.00011   0.00081   0.00092   1.94204
    A4        2.01401   0.00002  -0.00009  -0.00028  -0.00037   2.01364
    A5        2.20268  -0.00033  -0.00003  -0.00145  -0.00148   2.20120
    A6        2.06650   0.00031   0.00013   0.00172   0.00185   2.06835
    A7        2.04733  -0.00002  -0.00001  -0.00022  -0.00024   2.04709
    A8        2.14602  -0.00003   0.00011  -0.00002   0.00009   2.14611
    A9        2.08984   0.00004  -0.00010   0.00024   0.00014   2.08998
   A10        2.12650   0.00014   0.00007   0.00094   0.00101   2.12750
   A11        2.11399  -0.00009   0.00002  -0.00052  -0.00050   2.11349
   A12        2.04270  -0.00005  -0.00009  -0.00042  -0.00050   2.04219
    D1        0.00000   0.00000   0.00000   0.00000   0.00000   0.00000
    D2        3.14159   0.00000   0.00000   0.00000   0.00000   3.14159
    D3        3.14159   0.00000   0.00000   0.00000   0.00000   3.14159
    D4        0.00000   0.00000   0.00000   0.00000   0.00000   0.00000
    D5        0.00000   0.00000   0.00000   0.00000   0.00000   0.00000
    D6        3.14159   0.00000   0.00000   0.00000   0.00000   3.14159
    D7        3.14159   0.00000   0.00000   0.00000   0.00000   3.14159
    D8        0.00000   0.00000   0.00000   0.00000   0.00000   0.00000
    D9        0.00000   0.00000   0.00000   0.00000   0.00000   0.00000
   D10        3.14159   0.00000   0.00000   0.00000   0.00000   3.14159
   D11        3.14159   0.00000   0.00000   0.00000   0.00000   3.14159
   D12        0.00000   0.00000   0.00000   0.00000   0.00000   0.00000
         Item               Value     Threshold  Converged?
 Maximum Force            0.000330     0.000450     YES
 RMS     Force            0.000132     0.000300     YES
 Maximum Displacement     0.004981     0.001800     NO 
 RMS     Displacement     0.001536     0.001200     NO 
 Predicted change in Energy=-1.099740D-06
 GradGradGradGradGradGradGradGradGradGradGradGradGradGradGradGradGradGrad

                          Input orientation:                          
 ---------------------------------------------------------------------
 Center     Atomic      Atomic             Coordinates (Angstroms)
 Number     Number       Type             X           Y           Z
 ---------------------------------------------------------------------
      1          6           0       -2.063970   -1.697756    0.000000
      2          6           0       -1.354963   -0.587900    0.000000
      3          1           0       -1.929561    0.329676    0.000000
      4          6           0        0.106462   -0.497293    0.000000
      5          1           0        0.661144   -1.426402    0.000000
      6          6           0        0.757657    0.657661    0.000000
      7          1           0        0.237418    1.608388    0.000000
      8          1           0        1.838887    0.689348    0.000000
      9          9           0       -3.379743   -1.685340    0.000000
     10         17           0       -1.454394   -3.308416    0.000000
 ---------------------------------------------------------------------
                    Distance matrix (angstroms):
                    1          2          3          4          5
     1  C    0.000000
     2  C    1.316993   0.000000
     3  H    2.031882   1.082639   0.000000
     4  C    2.480299   1.464231   2.197559   0.000000
     5  H    2.738592   2.183524   3.129787   1.082089   0.000000
     6  C    3.675537   2.452465   2.707160   1.325887   2.086296
     7  H    4.028272   2.712814   2.516129   2.109750   3.064228
     8  H    4.574993   3.439773   3.785573   2.099861   2.421461
     9  F    1.315831   2.303065   2.482603   3.683080   4.049175
    10  Cl   1.722153   2.722333   3.668991   3.215382   2.831516
                    6          7          8          9         10
     6  C    0.000000
     7  H    1.083758   0.000000
     8  H    1.081694   1.846439   0.000000
     9  F    4.754759   4.892085   5.733519   0.000000
    10  Cl   4.541249   5.199730   5.179558   2.518202   0.000000
 Stoichiometry    C4H4ClF
 Framework group  CS[SG(C4H4ClF)]
 Deg. of freedom    17
 Full point group                 CS      NOp   2
 Largest Abelian subgroup         CS      NOp   2
 Largest concise Abelian subgroup C1      NOp   1
                         Standard orientation:                         
 ---------------------------------------------------------------------
 Center     Atomic      Atomic             Coordinates (Angstroms)
 Number     Number       Type             X           Y           Z
 ---------------------------------------------------------------------
      1          6           0        0.000000    0.790564    0.000000
      2          6           0       -0.941701   -0.130127    0.000000
      3          1           0       -1.957271    0.245006    0.000000
      4          6           0       -0.731990   -1.579262    0.000000
      5          1           0        0.290804   -1.932544    0.000000
      6          6           0       -1.729644   -2.452568    0.000000
      7          1           0       -2.766568   -2.137418    0.000000
      8          1           0       -1.539888   -3.517487    0.000000
      9          9           0       -0.280821    2.076080    0.000000
     10         17           0        1.701195    0.522711    0.000000
 ---------------------------------------------------------------------
 Rotational constants (GHZ):      5.2749292      1.7152153      1.2943423
 Standard basis: CC-pVDZ (5D, 7F)
 There are    79 symmetry adapted basis functions of A'  symmetry.
 There are    29 symmetry adapted basis functions of A"  symmetry.
 Integral buffers will be    131072 words long.
 Raffenetti 1 integral format.
 Two-electron integral symmetry is turned on.
   108 basis functions,   264 primitive gaussians,   114 cartesian basis functions
    27 alpha electrons       27 beta electrons
       nuclear repulsion energy       264.1932564476 Hartrees.
 NAtoms=   10 NActive=   10 NUniq=   10 SFac= 7.50D-01 NAtFMM=   80 NAOKFM=F Big=F
 One-electron integrals computed using PRISM.
 NBasis=   108 RedAO= T  NBF=    79    29
 NBsUse=   108 1.00D-06 NBFU=    79    29
 Initial guess read from the read-write file.
 B after Tr=     0.000000    0.000000    0.000000
         Rot=    1.000000    0.000000    0.000000    0.000000 Ang=   0.00 deg.
 Initial guess orbital symmetries:
       Occupied  (A') (A') (A') (A') (A') (A') (A') (A') (A') (A")
                 (A') (A') (A') (A') (A') (A') (A') (A') (A") (A')
                 (A') (A') (A") (A') (A') (A") (A")
       Virtual   (A") (A') (A') (A') (A") (A') (A') (A') (A') (A')
                 (A') (A') (A') (A") (A') (A') (A") (A') (A') (A")
                 (A') (A") (A") (A') (A') (A') (A') (A") (A') (A")
                 (A') (A') (A') (A') (A") (A') (A") (A') (A') (A")
                 (A") (A') (A') (A') (A') (A") (A") (A') (A") (A')
                 (A') (A') (A') (A") (A') (A') (A") (A') (A') (A")
                 (A") (A') (A') (A') (A") (A") (A') (A') (A') (A')
                 (A') (A') (A') (A') (A') (A') (A") (A') (A") (A')
                 (A')
 Requested convergence on RMS density matrix=1.00D-08 within 128 cycles.
 Requested convergence on MAX density matrix=1.00D-06.
 Requested convergence on             energy=1.00D-06.
 No special actions if energy rises.
 Keep R1 ints in memory in canonical form, NReq=22367630.
 SCF Done:  E(RHF) =  -712.705558574     A.U. after    8 cycles
             Convg  =    0.5865D-08             -V/T =  2.0000
 Calling FoFJK, ICntrl=      2127 FMM=F ISym2X=1 I1Cent= 0 IOpClX= 0 NMat=1 NMatS=1 NMatT=0.
 ***** Axes restored to original set *****
 -------------------------------------------------------------------
 Center     Atomic                   Forces (Hartrees/Bohr)
 Number     Number              X              Y              Z
 -------------------------------------------------------------------
      1        6          -0.000091095   -0.000110457    0.000000000
      2        6           0.000032977    0.000146499    0.000000000
      3        1           0.000016474   -0.000025206    0.000000000
      4        6           0.000054110   -0.000073643    0.000000000
      5        1          -0.000010664    0.000021494    0.000000000
      6        6           0.000029740    0.000110590    0.000000000
      7        1           0.000007895   -0.000027477    0.000000000
      8        1           0.000025337   -0.000001676    0.000000000
      9        9          -0.000014094   -0.000079516    0.000000000
     10       17          -0.000050679    0.000039392    0.000000000
 -------------------------------------------------------------------
 Cartesian Forces:  Max     0.000146499 RMS     0.000051023

 GradGradGradGradGradGradGradGradGradGradGradGradGradGradGradGradGradGrad
 Berny optimization.
 Using GEDIIS/GDIIS optimizer.
 Internal  Forces:  Max     0.000210811 RMS     0.000053292
 Search for a local minimum.
 Step number   5 out of a maximum of   43
 All quantities printed in internal units (Hartrees-Bohrs-Radians)
 Mixed Optimization -- En-DIIS/RFO-DIIS
 Swaping is turned off.
 Update second derivatives using D2CorX and points    1    2    3    4    5
 DE= -8.83D-07 DEPred=-1.10D-06 R= 8.03D-01
 SS=  1.41D+00  RLast= 3.23D-03 DXNew= 8.4853D-01 9.6759D-03
 Trust test= 8.03D-01 RLast= 3.23D-03 DXMaxT set to 5.05D-01
     Eigenvalues ---    0.00237   0.01425   0.01488   0.02681   0.02681
     Eigenvalues ---    0.02681   0.02681   0.12902   0.15879   0.16013
     Eigenvalues ---    0.16088   0.20838   0.22057   0.26455   0.28335
     Eigenvalues ---    0.30494   0.32537   0.36660   0.37258   0.37384
     Eigenvalues ---    0.37567   0.53782   0.59660   0.686451000.00000
     Eigenvalues --- 1000.000001000.000001000.000001000.000001000.00000
     Eigenvalues --- 1000.000001000.000001000.00000
 En-DIIS/RFO-DIIS IScMMF=        0 using points:     5    4    3
 RFO step:  Lambda=-1.29481697D-07.
 DIIS coeffs:      0.82713      0.18200     -0.00913
 Iteration  1 RMS(Cart)=  0.00022881 RMS(Int)=  0.00000002
 Iteration  2 RMS(Cart)=  0.00000001 RMS(Int)=  0.00000000
 ClnCor:  largest displacement from symmetrization is 8.02D-14 for atom     1.
 Variable       Old X    -DE/DX   Delta X   Delta X   Delta X     New X
                                  (DIIS)     (GDIIS)  (Total)
    R1        2.48876   0.00021   0.00014   0.00015   0.00028   2.48904
    R2        2.48656   0.00001   0.00009  -0.00010  -0.00001   2.48655
    R3        3.25440  -0.00005  -0.00007  -0.00006  -0.00013   3.25426
    R4        2.04589  -0.00003   0.00005  -0.00013  -0.00008   2.04581
    R5        2.76700   0.00011   0.00011   0.00017   0.00028   2.76728
    R6        2.04485  -0.00002   0.00007  -0.00014  -0.00008   2.04478
    R7        2.50556   0.00010  -0.00001   0.00016   0.00015   2.50572
    R8        2.04801  -0.00003  -0.00002  -0.00004  -0.00006   2.04795
    R9        2.04410   0.00003   0.00001   0.00005   0.00005   2.04416
    A1        2.12984   0.00010   0.00007   0.00021   0.00029   2.13013
    A2        2.21131   0.00001   0.00005  -0.00004   0.00002   2.21133
    A3        1.94204  -0.00010  -0.00013  -0.00018  -0.00031   1.94173
    A4        2.01364  -0.00001   0.00004  -0.00009  -0.00005   2.01359
    A5        2.20120   0.00002   0.00025  -0.00021   0.00003   2.20123
    A6        2.06835  -0.00001  -0.00028   0.00030   0.00001   2.06836
    A7        2.04709  -0.00001   0.00004  -0.00006  -0.00003   2.04707
    A8        2.14611   0.00002   0.00002   0.00004   0.00005   2.14616
    A9        2.08998  -0.00001  -0.00005   0.00003  -0.00002   2.08996
   A10        2.12750  -0.00001  -0.00015   0.00016   0.00000   2.12751
   A11        2.11349   0.00000   0.00009  -0.00012  -0.00003   2.11347
   A12        2.04219   0.00001   0.00006  -0.00004   0.00002   2.04221
    D1        0.00000   0.00000   0.00000   0.00000   0.00000   0.00000
    D2        3.14159   0.00000   0.00000   0.00000   0.00000   3.14159
    D3        3.14159   0.00000   0.00000   0.00000   0.00000   3.14159
    D4        0.00000   0.00000   0.00000   0.00000   0.00000   0.00000
    D5        0.00000   0.00000   0.00000   0.00000   0.00000   0.00000
    D6        3.14159   0.00000   0.00000   0.00000   0.00000   3.14159
    D7        3.14159   0.00000   0.00000   0.00000   0.00000   3.14159
    D8        0.00000   0.00000   0.00000   0.00000   0.00000   0.00000
    D9        0.00000   0.00000   0.00000   0.00000   0.00000   0.00000
   D10        3.14159   0.00000   0.00000   0.00000   0.00000   3.14159
   D11        3.14159   0.00000   0.00000   0.00000   0.00000   3.14159
   D12        0.00000   0.00000   0.00000   0.00000   0.00000   0.00000
         Item               Value     Threshold  Converged?
 Maximum Force            0.000211     0.000450     YES
 RMS     Force            0.000053     0.000300     YES
 Maximum Displacement     0.000801     0.001800     YES
 RMS     Displacement     0.000229     0.001200     YES
 Predicted change in Energy=-9.223600D-08
 Optimization completed.
    -- Stationary point found.
                           ----------------------------
                           !   Optimized Parameters   !
                           ! (Angstroms and Degrees)  !
 --------------------------                            --------------------------
 ! Name  Definition              Value          Derivative Info.                !
 --------------------------------------------------------------------------------
 ! R1    R(1,2)                  1.317          -DE/DX =    0.0002              !
 ! R2    R(1,9)                  1.3158         -DE/DX =    0.0                 !
 ! R3    R(1,10)                 1.7222         -DE/DX =   -0.0001              !
 ! R4    R(2,3)                  1.0826         -DE/DX =    0.0                 !
 ! R5    R(2,4)                  1.4642         -DE/DX =    0.0001              !
 ! R6    R(4,5)                  1.0821         -DE/DX =    0.0                 !
 ! R7    R(4,6)                  1.3259         -DE/DX =    0.0001              !
 ! R8    R(6,7)                  1.0838         -DE/DX =    0.0                 !
 ! R9    R(6,8)                  1.0817         -DE/DX =    0.0                 !
 ! A1    A(2,1,9)              122.031          -DE/DX =    0.0001              !
 ! A2    A(2,1,10)             126.6986         -DE/DX =    0.0                 !
 ! A3    A(9,1,10)             111.2704         -DE/DX =   -0.0001              !
 ! A4    A(1,2,3)              115.3731         -DE/DX =    0.0                 !
 ! A5    A(1,2,4)              126.1193         -DE/DX =    0.0                 !
 ! A6    A(3,2,4)              118.5076         -DE/DX =    0.0                 !
 ! A7    A(2,4,5)              117.2897         -DE/DX =    0.0                 !
 ! A8    A(2,4,6)              122.9632         -DE/DX =    0.0                 !
 ! A9    A(5,4,6)              119.747          -DE/DX =    0.0                 !
 ! A10   A(4,6,7)              121.8969         -DE/DX =    0.0                 !
 ! A11   A(4,6,8)              121.0942         -DE/DX =    0.0                 !
 ! A12   A(7,6,8)              117.0089         -DE/DX =    0.0                 !
 ! D1    D(9,1,2,3)              0.0            -DE/DX =    0.0                 !
 ! D2    D(9,1,2,4)            180.0            -DE/DX =    0.0                 !
 ! D3    D(10,1,2,3)           180.0            -DE/DX =    0.0                 !
 ! D4    D(10,1,2,4)             0.0            -DE/DX =    0.0                 !
 ! D5    D(1,2,4,5)              0.0            -DE/DX =    0.0                 !
 ! D6    D(1,2,4,6)            180.0            -DE/DX =    0.0                 !
 ! D7    D(3,2,4,5)            180.0            -DE/DX =    0.0                 !
 ! D8    D(3,2,4,6)              0.0            -DE/DX =    0.0                 !
 ! D9    D(2,4,6,7)              0.0            -DE/DX =    0.0                 !
 ! D10   D(2,4,6,8)            180.0            -DE/DX =    0.0                 !
 ! D11   D(5,4,6,7)            180.0            -DE/DX =    0.0                 !
 ! D12   D(5,4,6,8)              0.0            -DE/DX =    0.0                 !
 --------------------------------------------------------------------------------
 GradGradGradGradGradGradGradGradGradGradGradGradGradGradGradGradGradGrad

                          Input orientation:                          
 ---------------------------------------------------------------------
 Center     Atomic      Atomic             Coordinates (Angstroms)
 Number     Number       Type             X           Y           Z
 ---------------------------------------------------------------------
      1          6           0       -2.063970   -1.697756    0.000000
      2          6           0       -1.354963   -0.587900    0.000000
      3          1           0       -1.929561    0.329676    0.000000
      4          6           0        0.106462   -0.497293    0.000000
      5          1           0        0.661144   -1.426402    0.000000
      6          6           0        0.757657    0.657661    0.000000
      7          1           0        0.237418    1.608388    0.000000
      8          1           0        1.838887    0.689348    0.000000
      9          9           0       -3.379743   -1.685340    0.000000
     10         17           0       -1.454394   -3.308416    0.000000
 ---------------------------------------------------------------------
                    Distance matrix (angstroms):
                    1          2          3          4          5
     1  C    0.000000
     2  C    1.316993   0.000000
     3  H    2.031882   1.082639   0.000000
     4  C    2.480299   1.464231   2.197559   0.000000
     5  H    2.738592   2.183524   3.129787   1.082089   0.000000
     6  C    3.675537   2.452465   2.707160   1.325887   2.086296
     7  H    4.028272   2.712814   2.516129   2.109750   3.064228
     8  H    4.574993   3.439773   3.785573   2.099861   2.421461
     9  F    1.315831   2.303065   2.482603   3.683080   4.049175
    10  Cl   1.722153   2.722333   3.668991   3.215382   2.831516
                    6          7          8          9         10
     6  C    0.000000
     7  H    1.083758   0.000000
     8  H    1.081694   1.846439   0.000000
     9  F    4.754759   4.892085   5.733519   0.000000
    10  Cl   4.541249   5.199730   5.179558   2.518202   0.000000
 Stoichiometry    C4H4ClF
 Framework group  CS[SG(C4H4ClF)]
 Deg. of freedom    17
 Full point group                 CS      NOp   2
 Largest Abelian subgroup         CS      NOp   2
 Largest concise Abelian subgroup C1      NOp   1
                         Standard orientation:                         
 ---------------------------------------------------------------------
 Center     Atomic      Atomic             Coordinates (Angstroms)
 Number     Number       Type             X           Y           Z
 ---------------------------------------------------------------------
      1          6           0        0.000000    0.790564    0.000000
      2          6           0       -0.941701   -0.130127    0.000000
      3          1           0       -1.957271    0.245006    0.000000
      4          6           0       -0.731990   -1.579262    0.000000
      5          1           0        0.290804   -1.932544    0.000000
      6          6           0       -1.729644   -2.452568    0.000000
      7          1           0       -2.766568   -2.137418    0.000000
      8          1           0       -1.539888   -3.517487    0.000000
      9          9           0       -0.280821    2.076080    0.000000
     10         17           0        1.701195    0.522711    0.000000
 ---------------------------------------------------------------------
 Rotational constants (GHZ):      5.2749292      1.7152153      1.2943423

 **********************************************************************

            Population analysis using the SCF density.

 **********************************************************************

 Orbital symmetries:
       Occupied  (A') (A') (A') (A') (A') (A') (A') (A') (A') (A")
                 (A') (A') (A') (A') (A') (A') (A') (A') (A") (A')
                 (A') (A') (A") (A') (A') (A") (A")
       Virtual   (A") (A') (A') (A') (A") (A') (A') (A') (A') (A')
                 (A') (A') (A') (A") (A') (A') (A") (A') (A') (A")
                 (A') (A") (A") (A') (A') (A') (A') (A") (A') (A")
[...]
 IR Inten    --     1.5855                 4.5267                11.1394
  Atom  AN      X      Y      Z        X      Y      Z        X      Y      Z
     1   6     0.00   0.00   0.00     0.00   0.00   0.00     0.00   0.00   0.00
     2   6    -0.07   0.02   0.00    -0.05   0.01   0.00     0.00   0.00   0.00
     3   1     0.79  -0.28   0.00     0.51  -0.18   0.00    -0.03   0.01   0.00
     4   6     0.04  -0.01   0.00    -0.07   0.02   0.00     0.02  -0.01   0.00
     5   1    -0.50   0.17   0.00     0.76  -0.26   0.00    -0.22   0.07   0.00
     6   6    -0.01   0.00   0.00     0.02  -0.01   0.00     0.06  -0.08   0.00
     7   1     0.13  -0.04   0.00    -0.18   0.05   0.00    -0.56   0.16   0.00
     8   1     0.00  -0.01   0.00    -0.02   0.12   0.00    -0.13   0.76   0.00
     9   9     0.00   0.00   0.00     0.00   0.00   0.00     0.00   0.00   0.00
    10  17     0.00   0.00   0.00     0.00   0.00   0.00     0.00   0.00   0.00

 -------------------
 - Thermochemistry -
 -------------------
 Temperature   298.150 Kelvin.  Pressure   1.00000 Atm.
 Atom     1 has atomic number  6 and mass  12.00000
 Atom     2 has atomic number  6 and mass  12.00000
 Atom     3 has atomic number  1 and mass   1.00783
 Atom     4 has atomic number  6 and mass  12.00000
 Atom     5 has atomic number  1 and mass   1.00783
 Atom     6 has atomic number  6 and mass  12.00000
 Atom     7 has atomic number  1 and mass   1.00783
 Atom     8 has atomic number  1 and mass   1.00783
 Atom     9 has atomic number  9 and mass  18.99840
 Atom    10 has atomic number 17 and mass  34.96885
 Molecular mass:   105.99856 amu.
 Principal axes and moments of inertia in atomic units:
                           1         2         3
     Eigenvalues --   342.135631052.195121394.33074
           X            0.60762   0.79423   0.00000
           Y            0.79423  -0.60762   0.00000
           Z            0.00000   0.00000   1.00000
 This molecule is an asymmetric top.
 Rotational symmetry number  1.
 Rotational temperatures (Kelvin)      0.25316     0.08232     0.06212
 Rotational constants (GHZ):           5.27493     1.71522     1.29434
 Zero-point vibrational energy     193047.0 (Joules/Mol)
                                   46.13934 (Kcal/Mol)
 Warning -- explicit consideration of   7 degrees of freedom as
           vibrations may cause significant error
 Vibrational temperatures:    174.98   249.51   374.49   523.90   670.07
          (Kelvin)            809.42   827.46  1056.07  1077.45  1415.04
                             1487.98  1523.17  1611.44  1811.13  1858.87
                             1978.77  2052.15  2238.45  2627.66  2764.16
                             4756.51  4822.13  4830.79  4894.79
 
 Zero-point correction=                           0.073528 (Hartree/Particle)
 Thermal correction to Energy=                    0.079447
 Thermal correction to Enthalpy=                  0.080391
 Thermal correction to Gibbs Free Energy=         0.043071
 Sum of electronic and zero-point Energies=           -712.632031
 Sum of electronic and thermal Energies=              -712.626112
 Sum of electronic and thermal Enthalpies=            -712.625168
 Sum of electronic and thermal Free Energies=         -712.662487
 
                     E (Thermal)             CV                S
                      KCal/Mol        Cal/Mol-Kelvin    Cal/Mol-Kelvin
 Total                   49.853             20.039             78.545
 Electronic               0.000              0.000              0.000
 Translational            0.889              2.981             39.892
 Rotational               0.889              2.981             27.709
 Vibrational             48.076             14.077             10.945
 Vibration     1          0.609              1.931              3.075
 Vibration     2          0.627              1.875              2.398
 Vibration     3          0.668              1.745              1.660
 Vibration     4          0.738              1.546              1.104
 Vibration     5          0.823              1.326              0.750
 Vibration     6          0.918              1.112              0.519
 Vibration     7          0.931              1.085              0.495
                       Q            Log10(Q)             Ln(Q)
 Total Bot       0.154379D-19        -19.811411        -45.617460
 Total V=0       0.102075D+15         14.008918         32.256725
 Vib (Bot)       0.141908D-32        -32.847993        -75.635299
 Vib (Bot)    1  0.167971D+01          0.225235          0.518622
 Vib (Bot)    2  0.116077D+01          0.064746          0.149084
 Vib (Bot)    3  0.746121D+00         -0.127191         -0.292868
 Vib (Bot)    4  0.501983D+00         -0.299311         -0.689189
 Vib (Bot)    5  0.363477D+00         -0.439523         -1.012039
 Vib (Bot)    6  0.275577D+00         -0.559757         -1.288888
 Vib (Bot)    7  0.266257D+00         -0.574699         -1.323293
 Vib (V=0)       0.938288D+01          0.972336          2.238886
 Vib (V=0)    1  0.225255D+01          0.352675          0.812063
 Vib (V=0)    2  0.176388D+01          0.246468          0.567515
 Vib (V=0)    3  0.139816D+01          0.145558          0.335159
 Vib (V=0)    4  0.120851D+01          0.082250          0.189389
 Vib (V=0)    5  0.111816D+01          0.048502          0.111680
 Vib (V=0)    6  0.107091D+01          0.029755          0.068512
 Vib (V=0)    7  0.106647D+01          0.027950          0.064358
 Electronic      0.100000D+01          0.000000          0.000000
 Translational   0.428948D+08          7.632405         17.574262
 Rotational      0.253616D+06          5.404177         12.443576
 ***** Axes restored to original set *****
 -------------------------------------------------------------------
 Center     Atomic                   Forces (Hartrees/Bohr)
 Number     Number              X              Y              Z
 -------------------------------------------------------------------
      1        6          -0.000091134   -0.000110463    0.000000000
      2        6           0.000033001    0.000146504    0.000000000
      3        1           0.000016465   -0.000025194    0.000000000
      4        6           0.000054106   -0.000073661    0.000000000
      5        1          -0.000010665    0.000021497    0.000000000
      6        6           0.000029743    0.000110588    0.000000000
      7        1           0.000007886   -0.000027463    0.000000000
      8        1           0.000025346   -0.000001676    0.000000000
      9        9          -0.000014072   -0.000079526    0.000000000
     10       17          -0.000050678    0.000039394    0.000000000
 -------------------------------------------------------------------
 Cartesian Forces:  Max     0.000146504 RMS     0.000051027

 GradGradGradGradGradGradGradGradGradGradGradGradGradGradGradGradGradGrad
 Berny optimization.
 Internal  Forces:  Max     0.000210831 RMS     0.000053296
 Search for a local minimum.
 Step number   1 out of a maximum of    2
 All quantities printed in internal units (Hartrees-Bohrs-Radians)
 Second derivative matrix not updated -- analytic derivatives used.
     Eigenvalues ---    0.00552   0.02347   0.02890   0.03345   0.03667
     Eigenvalues ---    0.04957   0.07114   0.11771   0.12303   0.13041
     Eigenvalues ---    0.15131   0.17178   0.20277   0.20610   0.26944
     Eigenvalues ---    0.33916   0.38900   0.39534   0.39788   0.39988
     Eigenvalues ---    0.40018   0.50968   0.72476   0.750801000.00000
     Eigenvalues --- 1000.000001000.000001000.000001000.000001000.00000
     Eigenvalues --- 1000.000001000.000001000.00000
 Angle between quadratic step and forces=  24.62 degrees.
 Linear search not attempted -- first point.
 Iteration  1 RMS(Cart)=  0.00021037 RMS(Int)=  0.00000002
 Iteration  2 RMS(Cart)=  0.00000002 RMS(Int)=  0.00000000
 ClnCor:  largest displacement from symmetrization is 9.64D-15 for atom     8.
 Variable       Old X    -DE/DX   Delta X   Delta X   Delta X     New X
                                 (Linear)    (Quad)   (Total)
    R1        2.48876   0.00021   0.00000   0.00026   0.00026   2.48902
    R2        2.48656   0.00001   0.00000   0.00001   0.00001   2.48657
    R3        3.25440  -0.00005   0.00000  -0.00013  -0.00013   3.25426
    R4        2.04589  -0.00003   0.00000  -0.00007  -0.00007   2.04582
    R5        2.76700   0.00011   0.00000   0.00025   0.00025   2.76725
    R6        2.04485  -0.00002   0.00000  -0.00006  -0.00006   2.04479
    R7        2.50556   0.00010   0.00000   0.00014   0.00014   2.50570
    R8        2.04801  -0.00003   0.00000  -0.00007  -0.00007   2.04793
    R9        2.04410   0.00003   0.00000   0.00006   0.00006   2.04416
    A1        2.12984   0.00010   0.00000   0.00031   0.00031   2.13015
    A2        2.21131   0.00001   0.00000   0.00001   0.00001   2.21132
    A3        1.94204  -0.00010   0.00000  -0.00032  -0.00032   1.94172
    A4        2.01364  -0.00001   0.00000   0.00000   0.00000   2.01364
    A5        2.20120   0.00002   0.00000   0.00001   0.00001   2.20121
    A6        2.06835  -0.00001   0.00000  -0.00002  -0.00002   2.06833
    A7        2.04709  -0.00001   0.00000  -0.00003  -0.00003   2.04707
    A8        2.14611   0.00002   0.00000   0.00004   0.00004   2.14615
    A9        2.08998  -0.00001   0.00000  -0.00001  -0.00001   2.08997
   A10        2.12750  -0.00001   0.00000  -0.00004  -0.00004   2.12746
   A11        2.11349   0.00000   0.00000  -0.00004  -0.00004   2.11345
   A12        2.04219   0.00001   0.00000   0.00008   0.00008   2.04227
    D1        0.00000   0.00000   0.00000   0.00000   0.00000   0.00000
    D2        3.14159   0.00000   0.00000   0.00000   0.00000   3.14159
    D3        3.14159   0.00000   0.00000   0.00000   0.00000   3.14159
    D4        0.00000   0.00000   0.00000   0.00000   0.00000   0.00000
    D5        0.00000   0.00000   0.00000   0.00000   0.00000   0.00000
    D6        3.14159   0.00000   0.00000   0.00000   0.00000   3.14159
    D7        3.14159   0.00000   0.00000   0.00000   0.00000   3.14159
    D8        0.00000   0.00000   0.00000   0.00000   0.00000   0.00000
    D9        0.00000   0.00000   0.00000   0.00000   0.00000   0.00000
   D10        3.14159   0.00000   0.00000   0.00000   0.00000   3.14159
   D11        3.14159   0.00000   0.00000   0.00000   0.00000   3.14159
   D12        0.00000   0.00000   0.00000   0.00000   0.00000   0.00000
         Item               Value     Threshold  Converged?
 Maximum Force            0.000211     0.000450     YES
 RMS     Force            0.000053     0.000300     YES
 Maximum Displacement     0.000826     0.001800     YES
 RMS     Displacement     0.000210     0.001200     YES
 Predicted change in Energy=-8.731808D-08
 Optimization completed.
    -- Stationary point found.
                           ----------------------------
                           !   Optimized Parameters   !
                           ! (Angstroms and Degrees)  !
 --------------------------                            --------------------------
 ! Name  Definition              Value          Derivative Info.                !
 --------------------------------------------------------------------------------
 ! R1    R(1,2)                  1.317          -DE/DX =    0.0002              !
 ! R2    R(1,9)                  1.3158         -DE/DX =    0.0                 !
 ! R3    R(1,10)                 1.7222         -DE/DX =   -0.0001              !
 ! R4    R(2,3)                  1.0826         -DE/DX =    0.0                 !
 ! R5    R(2,4)                  1.4642         -DE/DX =    0.0001              !
 ! R6    R(4,5)                  1.0821         -DE/DX =    0.0                 !
 ! R7    R(4,6)                  1.3259         -DE/DX =    0.0001              !
 ! R8    R(6,7)                  1.0838         -DE/DX =    0.0                 !
 ! R9    R(6,8)                  1.0817         -DE/DX =    0.0                 !
 ! A1    A(2,1,9)              122.031          -DE/DX =    0.0001              !
 ! A2    A(2,1,10)             126.6986         -DE/DX =    0.0                 !
 ! A3    A(9,1,10)             111.2704         -DE/DX =   -0.0001              !
 ! A4    A(1,2,3)              115.3731         -DE/DX =    0.0                 !
 ! A5    A(1,2,4)              126.1193         -DE/DX =    0.0                 !
 ! A6    A(3,2,4)              118.5076         -DE/DX =    0.0                 !
 ! A7    A(2,4,5)              117.2897         -DE/DX =    0.0                 !
 ! A8    A(2,4,6)              122.9632         -DE/DX =    0.0                 !
 ! A9    A(5,4,6)              119.747          -DE/DX =    0.0                 !
 ! A10   A(4,6,7)              121.8969         -DE/DX =    0.0                 !
 ! A11   A(4,6,8)              121.0942         -DE/DX =    0.0                 !
 ! A12   A(7,6,8)              117.0089         -DE/DX =    0.0                 !
 ! D1    D(9,1,2,3)              0.0            -DE/DX =    0.0                 !
 ! D2    D(9,1,2,4)            180.0            -DE/DX =    0.0                 !
 ! D3    D(10,1,2,3)           180.0            -DE/DX =    0.0                 !
 ! D4    D(10,1,2,4)             0.0            -DE/DX =    0.0                 !
 ! D5    D(1,2,4,5)              0.0            -DE/DX =    0.0                 !
 ! D6    D(1,2,4,6)            180.0            -DE/DX =    0.0                 !
 ! D7    D(3,2,4,5)            180.0            -DE/DX =    0.0                 !
 ! D8    D(3,2,4,6)              0.0            -DE/DX =    0.0                 !
 ! D9    D(2,4,6,7)              0.0            -DE/DX =    0.0                 !
 ! D10   D(2,4,6,8)            180.0            -DE/DX =    0.0                 !
 ! D11   D(5,4,6,7)            180.0            -DE/DX =    0.0                 !
 ! D12   D(5,4,6,8)              0.0            -DE/DX =    0.0                 !
 --------------------------------------------------------------------------------
 GradGradGradGradGradGradGradGradGradGradGradGradGradGradGradGradGradGrad

 1\1\GINC-MALLOS71\Freq\RHF\CC-pVDZ\C4H4Cl1F1\MARLIN\26-Oct-2024\0\\#N 
 Geom=AllCheck Guess=TCheck SCRF=Check GenChk RHF/CC-pVDZ Freq\\Title C
 ard Required\\0,1\C,-2.0639704938,-1.6977555133,0.\C,-1.3549632988,-0.
 5878996553,0.\H,-1.9295612154,0.329675918,0.\C,0.1064615301,-0.4972934
 938,0.\H,0.661144361,-1.4264019353,0.\C,0.7576573689,0.6576607946,0.\H
 ,0.2374182609,1.6083878343,0.\H,1.8388868172,0.6893479783,0.\F,-3.3797
 430236,-1.6853400885,0.\Cl,-1.4543942866,-3.308416159,0.\\Version=EM64
 L-G09RevA.01\State=1-A'\HF=-712.7055586\RMSD=1.241e-09\RMSF=5.103e-05\
 ZeroPoint=0.0735277\Thermal=0.0794465\Dipole=0.4783267,0.4734604,0.\Di
 poleDeriv=1.5700955,0.0890189,0.,0.0842243,1.5982711,0.,0.,0.,0.130005
 7,-0.0715081,0.0885617,0.,-0.1778915,-0.4169908,0.,0.,0.,-0.1488931,0.
 0017746,-0.0199367,0.,0.0607661,-0.0219882,0.,0.,0.,0.168087,0.2489679
 ,0.1939578,0.,-0.0195552,0.0186602,0.,0.,0.,-0.137078,0.0006726,0.0089
 86,0.,0.0563348,-0.0222881,0.,0.,0.,0.1423402,-0.0359112,-0.208661,0.,
 -0.1004947,0.0212189,0.,0.,0.,-0.2820946,0.0034943,0.1036372,0.,0.0425
 314,-0.0347167,0.,0.,0.,0.1457829,-0.0835768,-0.027846,0.,0.0194465,0.
 0485528,0.,0.,0.,0.1415439,-1.5355539,-0.4578183,0.,0.0336193,-0.43101
 8,0.,0.,0.,-0.1304188,-0.098455,0.2301005,0.,0.0010191,-0.7597012,0.,0
 .,0.,-0.0292752\Polar=59.6754391,20.4682915,81.2011929,0.,0.,22.966619
 8\HyperPolar=103.9728646,42.6492652,9.404234,111.1262421,0.,0.,0.,1.92
 03639,4.7469375,0.\PG=CS [SG(C4H4Cl1F1)]\NImag=0\\0.73779631,0.2269847
 1,0.79530464,0.,0.,0.13508485,-0.26232579,-0.21947823,0.,0.79904693,-0
 .25158412,-0.49478406,0.,0.12371777,0.92739807,0.,0.,-0.06560475,0.,0.
 ,0.14257292,0.01011580,-0.01535734,0.,-0.15021922,0.14041040,0.,0.1542
 9923,0.01979022,-0.02260511,0.,0.13500737,-0.28990571,0.,-0.14812213,0
 .30551132,0.,0.,0.00996406,0.,0.,-0.04231569,0.,0.,0.02817879,-0.02248
 997,-0.02533449,0.,-0.30118896,0.01112329,0.,-0.01125140,-0.00337542,0
 .,0.73108795,-0.03552718,-0.00132884,0.,0.00552518,-0.11454131,0.,0.03
 018615,0.00562289,0.,0.10101946,0.95479649,0.,0.,-0.00247007,0.,0.,-0.
 06923590,0.,0.,0.00352890,0.,0.,0.15547196,0.00025567,0.00410233,0.,-0
 .01287441,0.02933325,0.,-0.00555624,-0.00168272,0.,-0.15037457,0.13720
 052,0.,0.15460820,0.00004961,-0.00007164,0.,-0.00342742,0.00542037,0.,
 -0.00141861,0.00054000,0.,0.13594182,-0.29181975,0.,-0.14416150,0.3114
 3266,0.,0.,-0.00019566,0.,0.,0.00374984,0.,0.,0.00233778,0.,0.,-0.0488
 8355,0.,0.,0.03094513,-0.00182756,0.01060336,0.,-0.02893774,-0.0467919
 8,0.,0.00184746,-0.00065841,0.,-0.25069460,-0.21770158,0.,0.01355723,0
 .01889029,0.,0.79160157,0.00543107,0.00512867,0.,-0.01554106,-0.001448
 90,0.,0.00082659,0.00101286,0.,-0.21320263,-0.53070444,0.,-0.01776912,
 -0.02159871,0.,0.11374306,0.91289535,0.,0.,0.00144999,0.,0.,0.00767822
 ,0.,0.,-0.00111182,0.,0.,-0.06307796,0.,0.,0.00799625,0.,0.,0.13317664
 ,0.00006236,-0.00049623,0.,0.00132088,-0.00099964,0.,-0.00000378,0.000
 06886,0.,0.01290151,-0.01666313,0.,-0.00088647,-0.00333583,0.,-0.14213
 560,0.13397226,0.,0.13820454,0.00002927,-0.00017254,0.,0.00212524,0.00
 164368,0.,-0.00129089,0.00018709,0.,0.01998622,-0.02158999,0.,-0.00380
 377,-0.00336315,0.,0.12694492,-0.29808765,0.,-0.14048124,0.31655170,0.
 ,0.,-0.00029522,0.,0.,-0.00916236,0.,0.,0.00037209,0.,0.,0.00727768,0.
 ,0.,0.01339696,0.,0.,-0.04404850,0.,0.,0.02768096,-0.00040099,0.000609
 70,0.,0.00091113,-0.00300164,0.,0.00038577,0.00010122,0.,-0.01129312,0
 .00494676,0.,0.00122486,-0.00035184,0.,-0.37960654,-0.00784630,0.,-0.0
 0944908,-0.00313758,0.,0.39858396,-0.00117098,0.00126226,0.,-0.0012994
 4,-0.00540610,0.,-0.00031648,0.00014335,0.,-0.03345712,0.00439714,0.,-
 0.00000018,0.00130099,0.,-0.00010193,-0.06665367,0.,0.02768632,0.00447
 841,0.,0.00923026,0.06115712,0.,0.,0.00117919,0.,0.,0.01393134,0.,0.,-
 0.00036822,0.,0.,0.00659170,0.,0.,-0.00902956,0.,0.,-0.04217862,0.,0.,
 0.00397754,0.,0.,0.02766768,-0.40668689,-0.02729160,0.,-0.05376346,0.0
 0178091,0.,0.00079547,0.00069628,0.,0.00672850,-0.00808130,0.,-0.00070
 920,0.00060292,0.,-0.00556094,0.00123802,0.,0.00020764,-0.00009184,0.,
 -0.00041806,-0.00069043,0.,0.49205104,0.00001218,-0.08165035,0.,-0.048
 72599,0.00882596,0.,-0.00030847,0.00303957,0.,0.00255304,-0.00384273,0
 .,-0.00101231,-0.00001220,0.,-0.00238545,0.00031504,0.,0.00017570,0.00
 003116,0.,-0.00029113,-0.00056198,0.,0.00539643,0.08905700,0.,0.,-0.04
 743474,0.,0.,0.01117763,0.,0.,-0.00844056,0.,0.,0.01387628,0.,0.,-0.00
 043759,0.,0.,0.00002604,0.,0.,0.00067007,0.,0.,-0.00177291,0.,0.,0.026
 02924,-0.05449894,0.04565780,0.,0.00803066,-0.00398825,0.,-0.00041308,
 -0.00182526,0.,-0.00342533,-0.00090487,0.,0.00075493,-0.00278944,0.,0.
 00175674,-0.00085189,0.,-0.00022200,-0.00028032,0.,0.00006208,0.000119
 98,0.,-0.03264412,0.04458599,0.,0.08059906,0.03598521,-0.20108303,0.,0
 .02209659,-0.03720199,0.,-0.00460922,-0.00354626,0.,0.00474583,-0.0009
 8947,0.,-0.00220649,-0.00182856,0.,-0.00254229,-0.00085854,0.,0.000072
 94,0.00032129,0.,-0.00025945,-0.00011750,0.,0.02644060,-0.01520146,0.,
 -0.07972373,0.26050551,0.,0.,-0.03167764,0.,0.,0.00720875,0.,0.,0.0078
 5467,0.,0.,-0.00307903,0.,0.,0.00012040,0.,0.,0.00008977,0.,0.,0.00013
 078,0.,0.,0.00000185,0.,0.,0.00630656,0.,0.,0.01304389\\0.00009113,0.0
 0011046,0.,-0.00003300,-0.00014650,0.,-0.00001647,0.00002519,0.,-0.000
 05411,0.00007366,0.,0.00001067,-0.00002150,0.,-0.00002974,-0.00011059,
 0.,-0.00000789,0.00002746,0.,-0.00002535,0.00000168,0.,0.00001407,0.00
 007953,0.,0.00005068,-0.00003939,0.\\\@


 IF YOU DON'T HAVE THE LAW - ARGUE THE FACTS.
 IF YOU DON'T HAVE THE FACTS - ARGUE THE LAW.
 IF YOU DON'T HAVE EITHER - POUND THE TABLE.
 Job cpu time:  0 days  0 hours  1 minutes 38.0 seconds.
 File lengths (MBytes):  RWF=     19 Int=      0 D2E=      0 Chk=      2 Scr=      1
 Normal termination of Gaussian 09 at Sat Oct 26 20:10:35 2024.
