 Entering Gaussian System, Link 0=g09
 Initial command:
 /u/local/G09/g09/l1.exe /tmp/marlin/22967.mallos00.local/Gau-5897.inp -scrdir=/tmp/marlin/22967.mallos00.local/
 Entering Link 1 = /u/local/G09/g09/l1.exe PID=      5899.
  
 Copyright (c) 1988,1990,1992,1993,1995,1998,2003,2009, Gaussian, Inc.
                  All Rights Reserved.
  
 This is part of the Gaussian(R) 09 program.  It is based on
 the Gaussian(R) 03 system (copyright 2003, Gaussian, Inc.),
 the Gaussian(R) 98 system (copyright 1998, Gaussian, Inc.),
 the Gaussian(R) 94 system (copyright 1995, Gaussian, Inc.),
 the Gaussian 92(TM) system (copyright 1992, Gaussian, Inc.),
 the Gaussian 90(TM) system (copyright 1990, Gaussian, Inc.),
 the Gaussian 88(TM) system (copyright 1988, Gaussian, Inc.),
 the Gaussian 86(TM) system (copyright 1986, Carnegie Mellon
 University), and the Gaussian 82(TM) system (copyright 1983,
 Carnegie Mellon University). Gaussian is a federally registered
 trademark of Gaussian, Inc.
  
 This software contains proprietary and confidential information,
 including trade secrets, belonging to Gaussian, Inc.
  
 This software is provided under written license and may be
 used, copied, transmitted, or stored only in accord with that
 written license.
  
 The following legend is applicable only to US Government
 contracts under FAR:
  
                    RESTRICTED RIGHTS LEGEND
  
 Use, reproduction and disclosure by the US Government is
 subject to restrictions as set forth in subparagraphs (a)
 and (c) of the Commercial Computer Software - Restricted
 Rights clause in FAR 52.227-19.
  
 Gaussian, Inc.
 340 Quinnipiac St., Bldg. 40, Wallingford CT 06492
  
  
 ---------------------------------------------------------------
 Warning -- This program may not be used in any manner that
 competes with the business of Gaussian, Inc. or will provide
 assistance to any competitor of Gaussian, Inc.  The licensee
 of this program is prohibited from giving any competitor of
 Gaussian, Inc. access to this program.  By using this program,
 the user acknowledges that Gaussian, Inc. is engaged in the
 business of creating and licensing software in the field of
 computational chemistry and represents and warrants to the
 licensee that it is not a competitor of Gaussian, Inc. and that
 it will not use this program in any manner prohibited above.
 ---------------------------------------------------------------
  

 Cite this work as:
 Gaussian 09, Revision A.01,
 M. J. Frisch, G. W. Trucks, H. B. Schlegel, G. E. Scuseria, 
 M. A. Robb, J. R. Cheeseman, G. Scalmani, V. Barone, B. Mennucci, 
 G. A. Petersson, H. Nakatsuji, M. Caricato, X. Li, H. P. Hratchian, 
 A. F. Izmaylov, J. Bloino, G. Zheng, J. L. Sonnenberg, M. Hada, 
 M. Ehara, K. Toyota, R. Fukuda, J. Hasegawa, M. Ishida, T. Nakajima, 
 Y. Honda, O. Kitao, H. Nakai, T. Vreven, J. A. Montgomery, Jr., 
 J. E. Peralta, F. Ogliaro, M. Bearpark, J. J. Heyd, E. Brothers, 
 K. N. Kudin, V. N. Staroverov, R. Kobayashi, J. Normand, 
 K. Raghavachari, A. Rendell, J. C. Burant, S. S. Iyengar, J. Tomasi, 
 M. Cossi, N. Rega, J. M. Millam, M. Klene, J. E. Knox, J. B. Cross, 
 V. Bakken, C. Adamo, J. Jaramillo, R. Gomperts, R. E. Stratmann, 
 O. Yazyev, A. J. Austin, R. Cammi, C. Pomelli, J. W. Ochterski, 
 R. L. Martin, K. Morokuma, V. G. Zakrzewski, G. A. Voth, 
 P. Salvador, J. J. Dannenberg, S. Dapprich, A. D. Daniels, 
 O. Farkas, J. B. Foresman, J. V. Ortiz, J. Cioslowski, 
 and D. J. Fox, Gaussian, Inc., Wallingford CT, 2009.
 
 ******************************************
 Gaussian 09:  EM64L-G09RevA.01  8-May-2009
                26-Oct-2024 
 ******************************************
 %mem=103GB
 %nproc=20
 Will use up to   20 processors via shared memory.
 %chk=2-base1.chk
 ---------------------------------------------
 # opt freq=noraman hf/6-31G geom=connectivity
 ---------------------------------------------
 1/18=20,19=15,38=1,57=2/1,3;
 2/9=110,12=2,17=6,18=5,40=1/2;
 3/5=1,6=6,11=9,16=1,25=1,30=1,71=1/1,2,3;
 4//1;
 5/5=2,38=5/2;
 6/7=2,8=2,9=2,10=2,28=1/1;
 7//1,2,3,16;
 1/18=20,19=15/3(2);
 2/9=110/2;
 99//99;
 2/9=110/2;
 3/5=1,6=6,11=9,16=1,25=1,30=1,71=1/1,2,3;
 4/5=5,16=3/1;
 5/5=2,38=5/2;
 7//1,2,3,16;
 1/18=20,19=15/3(-5);
 2/9=110/2;
 6/7=2,8=2,9=2,10=2,19=2,28=1/1;
 99/9=1/99;
 -------------------
 Title Card Required
 -------------------
 Symbolic Z-matrix:
 Charge =  0 Multiplicity = 1
 C                    -2.1124   -1.70543   0. 
 C                    -1.43713  -0.53045   0. 
 C                     0.10287  -0.53045   0. 
 H                     0.63603  -1.45815   0. 
 C                     0.78511   0.6405    0. 
 H                     0.25747   1.57135   0. 
 H                     1.8551    0.63414   0. 
 Cl                   -1.23542  -3.23137   0. 
 H                    -3.1824   -1.70543   0. 
 F                    -2.10981   0.64002   0. 
 

 GradGradGradGradGradGradGradGradGradGradGradGradGradGradGradGradGradGrad
 Berny optimization.
 Initialization pass.
                           ----------------------------
                           !    Initial Parameters    !
                           ! (Angstroms and Degrees)  !
 --------------------------                            --------------------------
 ! Name  Definition              Value          Derivative Info.                !
 --------------------------------------------------------------------------------
 ! R1    R(1,2)                  1.3552         estimate D2E/DX2                !
 ! R2    R(1,8)                  1.76           estimate D2E/DX2                !
 ! R3    R(1,9)                  1.07           estimate D2E/DX2                !
 ! R4    R(2,3)                  1.54           estimate D2E/DX2                !
 ! R5    R(2,10)                 1.35           estimate D2E/DX2                !
 ! R6    R(3,4)                  1.07           estimate D2E/DX2                !
 ! R7    R(3,5)                  1.3552         estimate D2E/DX2                !
 ! R8    R(5,6)                  1.07           estimate D2E/DX2                !
 ! R9    R(5,7)                  1.07           estimate D2E/DX2                !
 ! A1    A(2,1,8)              120.2269         estimate D2E/DX2                !
 ! A2    A(2,1,9)              119.8865         estimate D2E/DX2                !
 ! A3    A(8,1,9)              119.8865         estimate D2E/DX2                !
 ! A4    A(1,2,3)              119.8865         estimate D2E/DX2                !
 ! A5    A(1,2,10)             120.2269         estimate D2E/DX2                !
 ! A6    A(3,2,10)             119.8865         estimate D2E/DX2                !
 ! A7    A(2,3,4)              119.8865         estimate D2E/DX2                !
 ! A8    A(2,3,5)              120.2269         estimate D2E/DX2                !
 ! A9    A(4,3,5)              119.8865         estimate D2E/DX2                !
 ! A10   A(3,5,6)              120.2269         estimate D2E/DX2                !
 ! A11   A(3,5,7)              119.8865         estimate D2E/DX2                !
 ! A12   A(6,5,7)              119.8865         estimate D2E/DX2                !
 ! D1    D(8,1,2,3)              0.0            estimate D2E/DX2                !
 ! D2    D(8,1,2,10)           180.0            estimate D2E/DX2                !
 ! D3    D(9,1,2,3)            180.0            estimate D2E/DX2                !
 ! D4    D(9,1,2,10)             0.0            estimate D2E/DX2                !
 ! D5    D(1,2,3,4)              0.0            estimate D2E/DX2                !
 ! D6    D(1,2,3,5)            180.0            estimate D2E/DX2                !
 ! D7    D(10,2,3,4)           180.0            estimate D2E/DX2                !
 ! D8    D(10,2,3,5)             0.0            estimate D2E/DX2                !
 ! D9    D(2,3,5,6)              0.0            estimate D2E/DX2                !
 ! D10   D(2,3,5,7)            180.0            estimate D2E/DX2                !
 ! D11   D(4,3,5,6)            180.0            estimate D2E/DX2                !
 ! D12   D(4,3,5,7)              0.0            estimate D2E/DX2                !
 --------------------------------------------------------------------------------
 Trust Radius=3.00D-01 FncErr=1.00D-07 GrdErr=1.00D-07
 Number of steps in this run=  43 maximum allowed number of steps= 100.
 GradGradGradGradGradGradGradGradGradGradGradGradGradGradGradGradGradGrad

                          Input orientation:                          
 ---------------------------------------------------------------------
 Center     Atomic      Atomic             Coordinates (Angstroms)
 Number     Number       Type             X           Y           Z
 ---------------------------------------------------------------------
      1          6           0       -2.112403   -1.705426    0.000000
      2          6           0       -1.437129   -0.530449    0.000000
      3          6           0        0.102871   -0.530449    0.000000
      4          1           0        0.636035   -1.458154    0.000000
      5          6           0        0.785114    0.640495    0.000000
      6          1           0        0.257472    1.571352    0.000000
      7          1           0        1.855096    0.634138    0.000000
      8         17           0       -1.235424   -3.231371    0.000000
      9          1           0       -3.182403   -1.705426    0.000000
     10          9           0       -2.109812    0.640020    0.000000
 ---------------------------------------------------------------------
                    Distance matrix (angstroms):
                    1          2          3          4          5
     1  C    0.000000
     2  C    1.355200   0.000000
     3  C    2.507591   1.540000   0.000000
     4  H    2.759539   2.271265   1.070000   0.000000
     5  C    3.728131   2.511867   1.355200   2.103938   0.000000
     6  H    4.043956   2.699859   2.107479   3.053066   1.070000
     7  H    4.605932   3.492135   2.103938   2.421527   1.070000
     8  Cl   1.760000   2.708443   3.014301   2.578111   4.367370
     9  H    1.070000   2.103938   3.489068   3.826436   4.609181
    10  F    2.345448   1.350000   2.503191   3.455721   2.894927
                    6          7          8          9         10
     6  H    0.000000
     7  H    1.852234   0.000000
     8  Cl   5.029402   4.949088   0.000000
     9  H    4.750791   5.554274   2.473709   0.000000
    10  F    2.543897   3.964912   3.968907   2.579064   0.000000
 Stoichiometry    C4H4ClF
 Framework group  CS[SG(C4H4ClF)]
 Deg. of freedom    17
 Full point group                 CS      NOp   2
 Largest Abelian subgroup         CS      NOp   2
 Largest concise Abelian subgroup C1      NOp   1
                         Standard orientation:                         
 ---------------------------------------------------------------------
 Center     Atomic      Atomic             Coordinates (Angstroms)
 Number     Number       Type             X           Y           Z
 ---------------------------------------------------------------------
      1          6           0        1.195543    0.063266    0.000000
      2          6           0        0.024599    0.745510    0.000000
      3          6           0       -1.310602   -0.021847    0.000000
      4          1           0       -1.310602   -1.091847    0.000000
      5          6           0       -2.485580    0.653427    0.000000
      6          1           0       -2.491937    1.723408    0.000000
      7          1           0       -3.410101    0.114761    0.000000
      8         17           0        1.195543   -1.696734    0.000000
      9          1           0        2.123248    0.596430    0.000000
     10          9           0        0.024599    2.095510    0.000000
 ---------------------------------------------------------------------
 Rotational constants (GHZ):      4.9104608      1.7834448      1.3082849
 Standard basis: 6-31G (6D, 7F)
 There are    53 symmetry adapted basis functions of A'  symmetry.
 There are    13 symmetry adapted basis functions of A"  symmetry.
 Integral buffers will be    131072 words long.
 Raffenetti 1 integral format.
 Two-electron integral symmetry is turned on.
    66 basis functions,   172 primitive gaussians,    66 cartesian basis functions
    27 alpha electrons       27 beta electrons
       nuclear repulsion energy       260.3387724974 Hartrees.
 NAtoms=   10 NActive=   10 NUniq=   10 SFac= 7.50D-01 NAtFMM=   80 NAOKFM=F Big=F
 One-electron integrals computed using PRISM.
 NBasis=    66 RedAO= T  NBF=    53    13
 NBsUse=    66 1.00D-06 NBFU=    53    13
 Harris functional with IExCor=  205 diagonalized for initial guess.
 ExpMin= 1.43D-01 ExpMax= 2.52D+04 ExpMxC= 3.78D+03 IAcc=1 IRadAn=         1 AccDes= 0.00D+00
 HarFok:  IExCor=  205 AccDes= 0.00D+00 IRadAn=         1 IDoV= 1
 ScaDFX=  1.000000  1.000000  1.000000  1.000000
 FoFCou: FMM=F IPFlag=           0 FMFlag=      100000 FMFlg1=           0
         NFxFlg=           0 DoJE=T BraDBF=F KetDBF=T FulRan=T
         Omega=  0.000000  0.000000  1.000000  0.000000  0.000000 ICntrl=     500 IOpCl=  0
         NMat0=    1 NMatS0=    1 NMatT0=    0 NMatD0=    1 NMtDS0=    0 NMtDT0=    0
         I1Cent=           4 NGrid=           0.
 Petite list used in FoFCou.
 Initial guess orbital symmetries:
       Occupied  (A') (A') (A') (A') (A') (A') (A') (A') (A') (A")
                 (A') (A') (A') (A') (A') (A') (A') (A') (A') (A')
                 (A") (A') (A') (A") (A") (A') (A")
       Virtual   (A") (A') (A") (A') (A') (A') (A') (A') (A') (A')
                 (A') (A') (A') (A") (A') (A") (A') (A") (A') (A')
                 (A") (A') (A') (A") (A') (A') (A') (A') (A') (A')
                 (A') (A') (A') (A') (A") (A') (A') (A') (A')
 The electronic state of the initial guess is 1-A'.
 Requested convergence on RMS density matrix=1.00D-08 within 128 cycles.
 Requested convergence on MAX density matrix=1.00D-06.
 Requested convergence on             energy=1.00D-06.
 No special actions if energy rises.
 Keep R1 ints in memory in canonical form, NReq=3278450.
 SCF Done:  E(RHF) =  -712.545151687     A.U. after   14 cycles
             Convg  =    0.2841D-08             -V/T =  1.9999

 **********************************************************************

            Population analysis using the SCF density.

 **********************************************************************

 Orbital symmetries:
       Occupied  (A') (A') (A') (A') (A') (A') (A') (A') (A') (A")
                 (A') (A') (A') (A') (A') (A') (A') (A') (A") (A')
                 (A') (A') (A') (A") (A') (A") (A")
       Virtual   (A") (A') (A") (A') (A') (A') (A') (A') (A') (A')
                 (A') (A') (A") (A') (A') (A") (A') (A') (A") (A')
                 (A') (A") (A") (A') (A') (A') (A') (A') (A') (A')
                 (A') (A') (A') (A') (A") (A') (A') (A') (A')
 The electronic state is 1-A'.
 Alpha  occ. eigenvalues -- -104.83692 -26.33331 -11.37544 -11.31672 -11.27530
 Alpha  occ. eigenvalues --  -11.25893 -10.57788  -8.04644  -8.04224  -8.04198
 Alpha  occ. eigenvalues --   -1.64943  -1.17749  -1.08418  -1.01359  -0.85199
 Alpha  occ. eigenvalues --   -0.79197  -0.72527  -0.70872  -0.70843  -0.64320
 Alpha  occ. eigenvalues --   -0.58102  -0.57549  -0.54153  -0.52260  -0.46443
 Alpha  occ. eigenvalues --   -0.43218  -0.34119
 Alpha virt. eigenvalues --    0.09467   0.18434   0.22757   0.24427   0.27827
 Alpha virt. eigenvalues --    0.29485   0.31546   0.40217   0.45673   0.47113
 Alpha virt. eigenvalues --    0.51856   0.61069   0.63184   0.64265   0.66423
 Alpha virt. eigenvalues --    0.74743   0.76962   0.79127   0.79656   0.82547
 Alpha virt. eigenvalues --    0.85839   0.88868   0.89517   0.94907   1.04644
 Alpha virt. eigenvalues --    1.09847   1.13796   1.17299   1.20394   1.22995
 Alpha virt. eigenvalues --    1.24438   1.35881   1.43007   1.47803   1.58020
 Alpha virt. eigenvalues --    1.60719   1.67858   1.83885   2.58870
          Condensed to atoms (all electrons):
              1          2          3          4          5          6
     1  C    5.686406   0.410601  -0.063907  -0.002960   0.005512   0.000312
     2  C    0.410601   4.745106   0.330249  -0.015625  -0.061282  -0.002168
     3  C   -0.063907   0.330249   5.143395   0.385167   0.550785  -0.047777
     4  H   -0.002960  -0.015625   0.385167   0.423681  -0.030175   0.001815
     5  C    0.005512  -0.061282   0.550785  -0.030175   5.078250   0.400382
     6  H    0.000312  -0.002168  -0.047777   0.001815   0.400382   0.460918
     7  H   -0.000137   0.002768  -0.037554  -0.000878   0.388431  -0.018988
     8  Cl   0.141495  -0.085019  -0.001709  -0.004336   0.001058  -0.000030
     9  H    0.387489  -0.046330   0.003044  -0.000020  -0.000073  -0.000005
    10  F   -0.058345   0.208471  -0.055030   0.000787   0.006480   0.002184
              7          8          9         10
     1  C   -0.000137   0.141495   0.387489  -0.058345
     2  C    0.002768  -0.085019  -0.046330   0.208471
     3  C   -0.037554  -0.001709   0.003044  -0.055030
     4  H   -0.000878  -0.004336  -0.000020   0.000787
     5  C    0.388431   0.001058  -0.000073   0.006480
     6  H   -0.018988  -0.000030  -0.000005   0.002184
     7  H    0.480746  -0.000009   0.000001   0.000100
     8  Cl  -0.000009  16.882301  -0.025425   0.001327
     9  H    0.000001  -0.025425   0.434810   0.000220
    10  F    0.000100   0.001327   0.000220   9.322597
 Mulliken atomic charges:
              1
     1  C   -0.506465
     2  C    0.513229
     3  C   -0.206663
     4  H    0.242545
     5  C   -0.339366
     6  H    0.203357
     7  H    0.185518
     8  Cl   0.090346
     9  H    0.246290
    10  F   -0.428791
 Sum of Mulliken atomic charges =   0.00000
 Mulliken charges with hydrogens summed into heavy atoms:
              1
     1  C   -0.260175
     2  C    0.513229
     3  C    0.035882
     5  C    0.049509
     8  Cl   0.090346
    10  F   -0.428791
 Sum of Mulliken charges with hydrogens summed into heavy atoms =   0.00000
 Electronic spatial extent (au):  <R**2>=            819.7700
 Charge=              0.0000 electrons
 Dipole moment (field-independent basis, Debye):
    X=             -1.1297    Y=              0.0305    Z=              0.0000  Tot=              1.1301
 Quadrupole moment (field-independent basis, Debye-Ang):
   XX=            -36.0535   YY=            -45.9294   ZZ=            -44.4373
   XY=              1.9498   XZ=              0.0000   YZ=              0.0000
 Traceless Quadrupole moment (field-independent basis, Debye-Ang):
   XX=              6.0866   YY=             -3.7893   ZZ=             -2.2972
   XY=              1.9498   XZ=              0.0000   YZ=              0.0000
 Octapole moment (field-independent basis, Debye-Ang**2):
  XXX=             -5.0337  YYY=             -0.6687  ZZZ=              0.0000  XYY=             -4.4625
  XXY=              9.4804  XXZ=              0.0000  XZZ=              3.6056  YZZ=              3.3488
  YYZ=              0.0000  XYZ=              0.0000
 Hexadecapole moment (field-independent basis, Debye-Ang**3):
 XXXX=           -481.9325 YYYY=           -444.7920 ZZZZ=            -45.8536 XXXY=            110.7720
 XXXZ=              0.0000 YYYX=            100.8447 YYYZ=              0.0000 ZZZX=              0.0000
 ZZZY=              0.0000 XXYY=           -157.3102 XXZZ=           -107.6782 YYZZ=            -81.8327
 XXYZ=              0.0000 YYXZ=              0.0000 ZZXY=             36.7907
 N-N= 2.603387724974D+02 E-N=-2.210535142402D+03  KE= 7.126030397375D+02
 Symmetry A'   KE= 6.562989459930D+02
 Symmetry A"   KE= 5.630409374450D+01
 Calling FoFJK, ICntrl=      2127 FMM=F ISym2X=1 I1Cent= 0 IOpClX= 0 NMat=1 NMatS=1 NMatT=0.
 ***** Axes restored to original set *****
 -------------------------------------------------------------------
 Center     Atomic                   Forces (Hartrees/Bohr)
 Number     Number              X              Y              Z
 -------------------------------------------------------------------
      1        6           0.004920523    0.067386151    0.000000000
      2        6           0.043776323   -0.081752514    0.000000000
      3        6          -0.020381318    0.062719778    0.000000000
      4        1          -0.008473430   -0.000314774    0.000000000
      5        6          -0.022053081   -0.036584526    0.000000000
      6        1           0.003480455    0.003668716    0.000000000
      7        1           0.001022644    0.003786361    0.000000000
      8       17          -0.005195396   -0.017459096    0.000000000
      9        1           0.002522917   -0.010262375    0.000000000
     10        9           0.000380362    0.008812280    0.000000000
 -------------------------------------------------------------------
 Cartesian Forces:  Max     0.081752514 RMS     0.025802472

 GradGradGradGradGradGradGradGradGradGradGradGradGradGradGradGradGradGrad
 Berny optimization.
 Internal  Forces:  Max     0.049873768 RMS     0.017226613
 Search for a local minimum.
 Step number   1 out of a maximum of   43
 All quantities printed in internal units (Hartrees-Bohrs-Radians)
 Mixed Optimization -- RFO/linear search
 Second derivative matrix not updated -- first step.
     Eigenvalues ---    0.00237   0.01459   0.01463   0.02681   0.02681
     Eigenvalues ---    0.02681   0.02681   0.16000   0.16000   0.16000
     Eigenvalues ---    0.16000   0.22000   0.22000   0.25000   0.25000
     Eigenvalues ---    0.28519   0.29539   0.37230   0.37230   0.37230
     Eigenvalues ---    0.37230   0.53930   0.53930   0.550211000.00000
     Eigenvalues --- 1000.000001000.000001000.000001000.000001000.00000
     Eigenvalues --- 1000.000001000.000001000.00000
 RFO step:  Lambda=-3.04635195D-02 EMin= 2.36824121D-03
 Linear search not attempted -- first point.
 Maximum step size (   0.300) exceeded in Quadratic search.
    -- Step size scaled by   0.937
 Iteration  1 RMS(Cart)=  0.12998486 RMS(Int)=  0.00883418
 Iteration  2 RMS(Cart)=  0.01089048 RMS(Int)=  0.00003245
 Iteration  3 RMS(Cart)=  0.00006345 RMS(Int)=  0.00000000
 Iteration  4 RMS(Cart)=  0.00000000 RMS(Int)=  0.00000000
 ClnCor:  largest displacement from symmetrization is 1.29D-09 for atom     7.
 Variable       Old X    -DE/DX   Delta X   Delta X   Delta X     New X
                                 (Linear)    (Quad)   (Total)
    R1        2.56096  -0.03551   0.00000  -0.05840  -0.05840   2.50255
    R2        3.32592   0.01255   0.00000   0.03609   0.03609   3.36200
    R3        2.02201  -0.00252   0.00000  -0.00587  -0.00587   2.01614
    R4        2.91018  -0.04640   0.00000  -0.13776  -0.13776   2.77242
    R5        2.55113   0.00745   0.00000   0.01202   0.01202   2.56315
    R6        2.02201  -0.00395   0.00000  -0.00919  -0.00919   2.01282
    R7        2.56096  -0.03400   0.00000  -0.05593  -0.05593   2.50503
    R8        2.02201   0.00148   0.00000   0.00343   0.00343   2.02544
    R9        2.02201   0.00100   0.00000   0.00233   0.00233   2.02433
    A1        2.09836   0.02236   0.00000   0.08366   0.08366   2.18201
    A2        2.09241  -0.00080   0.00000   0.00922   0.00922   2.10163
    A3        2.09241  -0.02156   0.00000  -0.09288  -0.09288   1.99954
    A4        2.09241   0.04987   0.00000   0.16664   0.16664   2.25905
    A5        2.09836  -0.01892   0.00000  -0.06320  -0.06320   2.03516
    A6        2.09241  -0.03096   0.00000  -0.10344  -0.10344   1.98898
    A7        2.09241  -0.01039   0.00000  -0.04782  -0.04782   2.04459
    A8        2.09836   0.00561   0.00000   0.02100   0.02100   2.11936
    A9        2.09241   0.00478   0.00000   0.02682   0.02682   2.11924
   A10        2.09836   0.00396   0.00000   0.01950   0.01950   2.11786
   A11        2.09241   0.00185   0.00000   0.00911   0.00911   2.10153
   A12        2.09241  -0.00582   0.00000  -0.02862  -0.02862   2.06380
    D1        0.00000   0.00000   0.00000   0.00000   0.00000   0.00000
    D2        3.14159   0.00000   0.00000   0.00000   0.00000   3.14159
    D3        3.14159   0.00000   0.00000   0.00000   0.00000   3.14159
    D4        0.00000   0.00000   0.00000   0.00000   0.00000   0.00000
    D5        0.00000   0.00000   0.00000   0.00000   0.00000   0.00000
    D6        3.14159   0.00000   0.00000   0.00000   0.00000   3.14159
    D7        3.14159   0.00000   0.00000   0.00000   0.00000   3.14159
    D8        0.00000   0.00000   0.00000   0.00000   0.00000   0.00000
    D9        0.00000   0.00000   0.00000   0.00000   0.00000   0.00000
   D10        3.14159   0.00000   0.00000   0.00000   0.00000   3.14159
   D11        3.14159   0.00000   0.00000   0.00000   0.00000   3.14159
   D12        0.00000   0.00000   0.00000   0.00000   0.00000   0.00000
         Item               Value     Threshold  Converged?
 Maximum Force            0.049874     0.000450     NO 
 RMS     Force            0.017227     0.000300     NO 
 Maximum Displacement     0.457095     0.001800     NO 
 RMS     Displacement     0.133036     0.001200     NO 
 Predicted change in Energy=-1.654231D-02
 GradGradGradGradGradGradGradGradGradGradGradGradGradGradGradGradGradGrad

                          Input orientation:                          
 ---------------------------------------------------------------------
 Center     Atomic      Atomic             Coordinates (Angstroms)
 Number     Number       Type             X           Y           Z
 ---------------------------------------------------------------------
      1          6           0       -2.084512   -1.704865    0.000000
      2          6           0       -1.324479   -0.620382    0.000000
      3          6           0        0.138277   -0.507563    0.000000
      4          1           0        0.695710   -1.415190    0.000000
      5          6           0        0.740497    0.673352    0.000000
      6          1           0        0.178311    1.585896    0.000000
      7          1           0        1.809856    0.736673    0.000000
      8         17           0       -1.477308   -3.377135    0.000000
      9          1           0       -3.147956   -1.619133    0.000000
     10          9           0       -1.968980    0.573075    0.000000
 ---------------------------------------------------------------------
                    Distance matrix (angstroms):
                    1          2          3          4          5
     1  C    0.000000
     2  C    1.324295   0.000000
     3  C    2.524743   1.467100   0.000000
     4  H    2.795273   2.170918   1.065138   0.000000
     5  C    3.692777   2.436775   1.325605   2.089022   0.000000
     6  H    3.993680   2.669464   2.093842   3.045360   1.071816
     7  H    4.596435   3.415502   2.083818   2.423187   1.071231
     8  Cl   1.779096   2.760986   3.293108   2.927667   4.617911
     9  H    1.066894   2.079080   3.469137   3.849073   4.513929
    10  F    2.280868   1.356363   2.368187   3.324721   2.711332
                    6          7          8          9         10
     6  H    0.000000
     7  H    1.839325   0.000000
     8  Cl   5.231898   5.265820   0.000000
     9  H    4.619119   5.489055   2.425209   0.000000
    10  F    2.374166   3.782375   3.980691   2.489128   0.000000
 Stoichiometry    C4H4ClF
 Framework group  CS[SG(C4H4ClF)]
 Deg. of freedom    17
 Full point group                 CS      NOp   2
 Largest Abelian subgroup         CS      NOp   2
 Largest concise Abelian subgroup C1      NOp   1
                         Standard orientation:                         
 ---------------------------------------------------------------------
 Center     Atomic      Atomic             Coordinates (Angstroms)
 Number     Number       Type             X           Y           Z
 ---------------------------------------------------------------------
      1          6           0       -1.109841   -0.075352    0.000000
      2          6           0        0.000000    0.647151    0.000000
      3          6           0        1.399183    0.205939    0.000000
      4          1           0        1.577632   -0.844144    0.000000
      5          6           0        2.398599    1.076800    0.000000
      6          1           0        2.217576    2.133219    0.000000
      7          1           0        3.414333    0.736477    0.000000
      8         17           0       -1.170571   -1.853411    0.000000
      9          1           0       -2.064463    0.401050    0.000000
     10          9           0       -0.152559    1.994907    0.000000
 ---------------------------------------------------------------------
 Rotational constants (GHZ):      5.7786955      1.6169449      1.2634244
 Standard basis: 6-31G (6D, 7F)
 There are    53 symmetry adapted basis functions of A'  symmetry.
 There are    13 symmetry adapted basis functions of A"  symmetry.
 Integral buffers will be    131072 words long.
 Raffenetti 1 integral format.
 Two-electron integral symmetry is turned on.
    66 basis functions,   172 primitive gaussians,    66 cartesian basis functions
    27 alpha electrons       27 beta electrons
       nuclear repulsion energy       260.4136953494 Hartrees.
 NAtoms=   10 NActive=   10 NUniq=   10 SFac= 7.50D-01 NAtFMM=   80 NAOKFM=F Big=F
 One-electron integrals computed using PRISM.
 NBasis=    66 RedAO= T  NBF=    53    13
 NBsUse=    66 1.00D-06 NBFU=    53    13
 Initial guess read from the read-write file.
 B after Tr=     0.000000    0.000000    0.000000
         Rot=    1.000000    0.000000    0.000000    0.000000 Ang=   0.00 deg.
 Initial guess orbital symmetries:
       Occupied  (A') (A') (A') (A') (A') (A') (A') (A') (A') (A")
                 (A') (A') (A') (A') (A') (A') (A') (A') (A") (A')
                 (A') (A') (A') (A") (A') (A") (A")
       Virtual   (A") (A') (A") (A') (A') (A') (A') (A') (A') (A')
                 (A') (A') (A") (A') (A') (A") (A') (A') (A") (A')
                 (A') (A") (A") (A') (A') (A') (A') (A') (A') (A')
                 (A') (A') (A') (A') (A") (A') (A') (A') (A')
 Harris functional with IExCor=  205 diagonalized for initial guess.
 ExpMin= 1.43D-01 ExpMax= 2.52D+04 ExpMxC= 3.78D+03 IAcc=1 IRadAn=         1 AccDes= 0.00D+00
 HarFok:  IExCor=  205 AccDes= 0.00D+00 IRadAn=         1 IDoV= 1
 ScaDFX=  1.000000  1.000000  1.000000  1.000000
 FoFCou: FMM=F IPFlag=           0 FMFlag=      100000 FMFlg1=           0
         NFxFlg=           0 DoJE=T BraDBF=F KetDBF=T FulRan=T
         Omega=  0.000000  0.000000  1.000000  0.000000  0.000000 ICntrl=     500 IOpCl=  0
         NMat0=    1 NMatS0=    1 NMatT0=    0 NMatD0=    1 NMtDS0=    0 NMtDT0=    0
         I1Cent=           4 NGrid=           0.
 Petite list used in FoFCou.
 Requested convergence on RMS density matrix=1.00D-08 within 128 cycles.
 Requested convergence on MAX density matrix=1.00D-06.
 Requested convergence on             energy=1.00D-06.
 No special actions if energy rises.
 Keep R1 ints in memory in canonical form, NReq=3278450.
 SCF Done:  E(RHF) =  -712.559972455     A.U. after   14 cycles
             Convg  =    0.7734D-08             -V/T =  1.9996
 Calling FoFJK, ICntrl=      2127 FMM=F ISym2X=1 I1Cent= 0 IOpClX= 0 NMat=1 NMatS=1 NMatT=0.
 ***** Axes restored to original set *****
 -------------------------------------------------------------------
 Center     Atomic                   Forces (Hartrees/Bohr)
 Number     Number              X              Y              Z
 -------------------------------------------------------------------
      1        6          -0.003210388    0.016353811    0.000000000
      2        6           0.017154775   -0.029964166    0.000000000
      3        6          -0.011357191    0.007636905    0.000000000
      4        1           0.000690182   -0.004605190    0.000000000
      5        6           0.001396511   -0.002127175    0.000000000
      6        1           0.002506567    0.000657426    0.000000000
      7        1           0.000159594    0.002011202    0.000000000
      8       17           0.002600583   -0.000937553    0.000000000
      9        1           0.000427623   -0.003246487    0.000000000
     10        9          -0.010368258    0.014221226    0.000000000
 -------------------------------------------------------------------
 Cartesian Forces:  Max     0.029964166 RMS     0.008214322

 GradGradGradGradGradGradGradGradGradGradGradGradGradGradGradGradGradGrad
 Berny optimization.
 Using GEDIIS/GDIIS optimizer.
 Internal  Forces:  Max     0.017439853 RMS     0.004561244
 Search for a local minimum.
 Step number   2 out of a maximum of   43
 All quantities printed in internal units (Hartrees-Bohrs-Radians)
 Mixed Optimization -- RFO/linear search
 Update second derivatives using D2CorX and points    1    2
 DE= -1.48D-02 DEPred=-1.65D-02 R= 8.96D-01
 SS=  1.41D+00  RLast= 3.00D-01 DXNew= 5.0454D-01 9.0000D-01
 Trust test= 8.96D-01 RLast= 3.00D-01 DXMaxT set to 5.05D-01
 Use linear search instead of GDIIS.
     Eigenvalues ---    0.00237   0.01486   0.01510   0.02681   0.02681
     Eigenvalues ---    0.02681   0.02681   0.15459   0.16000   0.16000
     Eigenvalues ---    0.16014   0.21129   0.22479   0.24814   0.27375
     Eigenvalues ---    0.29479   0.30251   0.37221   0.37230   0.37230
     Eigenvalues ---    0.37663   0.51272   0.54147   0.585811000.00000
     Eigenvalues --- 1000.000001000.000001000.000001000.000001000.00000
     Eigenvalues --- 1000.000001000.000001000.00000
 RFO step:  Lambda=-2.11707475D-03 EMin= 2.36824121D-03
 Quartic linear search produced a step of  0.06327.
 Iteration  1 RMS(Cart)=  0.03176657 RMS(Int)=  0.00044462
 Iteration  2 RMS(Cart)=  0.00059023 RMS(Int)=  0.00000003
 Iteration  3 RMS(Cart)=  0.00000005 RMS(Int)=  0.00000000
 ClnCor:  largest displacement from symmetrization is 2.74D-11 for atom     9.
 Variable       Old X    -DE/DX   Delta X   Delta X   Delta X     New X
                                 (Linear)    (Quad)   (Total)
    R1        2.50255  -0.00986  -0.00370  -0.01967  -0.02336   2.47919
    R2        3.36200   0.00177   0.00228   0.00646   0.00874   3.37075
    R3        2.01614  -0.00069  -0.00037  -0.00198  -0.00235   2.01379
    R4        2.77242  -0.00631  -0.00872  -0.02386  -0.03257   2.73984
    R5        2.56315   0.01744   0.00076   0.03362   0.03438   2.59754
    R6        2.01282   0.00429  -0.00058   0.01212   0.01154   2.02436
    R7        2.50503   0.00233  -0.00354   0.00428   0.00074   2.50577
    R8        2.02544  -0.00076   0.00022  -0.00213  -0.00191   2.02353
    R9        2.02433   0.00028   0.00015   0.00080   0.00095   2.02528
    A1        2.18201  -0.00691   0.00529  -0.03284  -0.02755   2.15446
    A2        2.10163   0.00668   0.00058   0.03764   0.03823   2.13986
    A3        1.99954   0.00023  -0.00588  -0.00480  -0.01068   1.98886
    A4        2.25905   0.00082   0.01054   0.00399   0.01453   2.27358
    A5        2.03516  -0.00344  -0.00400  -0.01471  -0.01871   2.01645
    A6        1.98898   0.00262  -0.00654   0.01072   0.00417   1.99315
    A7        2.04459  -0.00559  -0.00303  -0.03006  -0.03308   2.01151
    A8        2.11936   0.00751   0.00133   0.03598   0.03730   2.15666
    A9        2.11924  -0.00192   0.00170  -0.00592  -0.00422   2.11501
   A10        2.11786   0.00200   0.00123   0.01313   0.01436   2.13222
   A11        2.10153   0.00102   0.00058   0.00672   0.00730   2.10882
   A12        2.06380  -0.00302  -0.00181  -0.01985  -0.02166   2.04214
    D1        0.00000   0.00000   0.00000   0.00000   0.00000   0.00000
    D2        3.14159   0.00000   0.00000   0.00000   0.00000   3.14159
    D3        3.14159   0.00000   0.00000   0.00000   0.00000   3.14159
    D4        0.00000   0.00000   0.00000   0.00000   0.00000   0.00000
    D5        0.00000   0.00000   0.00000   0.00000   0.00000   0.00000
    D6        3.14159   0.00000   0.00000   0.00000   0.00000   3.14159
    D7        3.14159   0.00000   0.00000   0.00000   0.00000   3.14159
    D8        0.00000   0.00000   0.00000   0.00000   0.00000   0.00000
    D9        0.00000   0.00000   0.00000   0.00000   0.00000   0.00000
   D10        3.14159   0.00000   0.00000   0.00000   0.00000   3.14159
   D11        3.14159   0.00000   0.00000   0.00000   0.00000   3.14159
   D12        0.00000   0.00000   0.00000   0.00000   0.00000   0.00000
         Item               Value     Threshold  Converged?
 Maximum Force            0.017440     0.000450     NO 
 RMS     Force            0.004561     0.000300     NO 
 Maximum Displacement     0.084376     0.001800     NO 
 RMS     Displacement     0.031909     0.001200     NO 
 Predicted change in Energy=-1.107559D-03
 GradGradGradGradGradGradGradGradGradGradGradGradGradGradGradGradGradGrad

                          Input orientation:                          
 ---------------------------------------------------------------------
 Center     Atomic      Atomic             Coordinates (Angstroms)
 Number     Number       Type             X           Y           Z
 ---------------------------------------------------------------------
      1          6           0       -2.085207   -1.695603    0.000000
      2          6           0       -1.329112   -0.623461    0.000000
      3          6           0        0.115068   -0.495222    0.000000
      4          1           0        0.655952   -1.419890    0.000000
      5          6           0        0.747638    0.670161    0.000000
      6          1           0        0.222961    1.603616    0.000000
      7          1           0        1.818482    0.713797    0.000000
      8         17           0       -1.435350   -3.356731    0.000000
      9          1           0       -3.149772   -1.647497    0.000000
     10          9           0       -2.001243    0.575558    0.000000
 ---------------------------------------------------------------------
                    Distance matrix (angstroms):
                    1          2          3          4          5
     1  C    0.000000
     2  C    1.311933   0.000000
     3  C    2.506417   1.449863   0.000000
     4  H    2.754990   2.138873   1.071245   0.000000
     5  C    3.690780   2.446702   1.325995   2.092061   0.000000
     6  H    4.026473   2.714554   2.101609   3.054353   1.070805
     7  H    4.587374   3.419885   2.088863   2.429835   1.071733
     8  Cl   1.783722   2.735334   3.254540   2.850421   4.580535
     9  H    1.065651   2.088888   3.462213   3.812524   4.534462
    10  F    2.272712   1.374557   2.371780   3.323025   2.750509
                    6          7          8          9         10
     6  H    0.000000
     7  H    1.826874   0.000000
     8  Cl   5.230205   5.211202   0.000000
     9  H    4.684556   5.500842   2.420894   0.000000
    10  F    2.450304   3.822226   3.972799   2.502217   0.000000
 Stoichiometry    C4H4ClF
 Framework group  CS[SG(C4H4ClF)]
 Deg. of freedom    17
 Full point group                 CS      NOp   2
 Largest Abelian subgroup         CS      NOp   2
 Largest concise Abelian subgroup C1      NOp   1
                         Standard orientation:                         
 ---------------------------------------------------------------------
 Center     Atomic      Atomic             Coordinates (Angstroms)
 Number     Number       Type             X           Y           Z
 ---------------------------------------------------------------------
      1          6           0       -1.116485   -0.047917    0.000000
      2          6           0        0.000000    0.641017    0.000000
      3          6           0        1.378459    0.191627    0.000000
      4          1           0        1.512622   -0.871184    0.000000
      5          6           0        2.417977    1.014831    0.000000
      6          1           0        2.302170    2.079356    0.000000
      7          1           0        3.419878    0.634297    0.000000
      8         17           0       -1.171414   -1.830792    0.000000
      9          1           0       -2.076572    0.414517    0.000000
     10          9           0       -0.147086    2.007682    0.000000
 ---------------------------------------------------------------------
 Rotational constants (GHZ):      5.6468738      1.6439369      1.2732609
 Standard basis: 6-31G (6D, 7F)
 There are    53 symmetry adapted basis functions of A'  symmetry.
 There are    13 symmetry adapted basis functions of A"  symmetry.
 Integral buffers will be    131072 words long.
 Raffenetti 1 integral format.
 Two-electron integral symmetry is turned on.
    66 basis functions,   172 primitive gaussians,    66 cartesian basis functions
    27 alpha electrons       27 beta electrons
       nuclear repulsion energy       260.7623031640 Hartrees.
 NAtoms=   10 NActive=   10 NUniq=   10 SFac= 7.50D-01 NAtFMM=   80 NAOKFM=F Big=F
 One-electron integrals computed using PRISM.
 NBasis=    66 RedAO= T  NBF=    53    13
 NBsUse=    66 1.00D-06 NBFU=    53    13
 Initial guess read from the read-write file.
 B after Tr=     0.000000    0.000000    0.000000
         Rot=    1.000000    0.000000    0.000000    0.000000 Ang=   0.00 deg.
 Initial guess orbital symmetries:
       Occupied  (A') (A') (A') (A') (A') (A') (A') (A') (A') (A")
                 (A') (A') (A') (A') (A') (A') (A') (A') (A") (A')
                 (A') (A') (A') (A") (A') (A") (A")
       Virtual   (A") (A') (A") (A') (A') (A') (A') (A') (A') (A')
                 (A') (A') (A') (A") (A') (A") (A') (A") (A') (A')
                 (A') (A") (A") (A') (A') (A') (A') (A') (A') (A')
                 (A') (A') (A') (A') (A") (A') (A') (A') (A')
 Harris functional with IExCor=  205 diagonalized for initial guess.
 ExpMin= 1.43D-01 ExpMax= 2.52D+04 ExpMxC= 3.78D+03 IAcc=1 IRadAn=         1 AccDes= 0.00D+00
 HarFok:  IExCor=  205 AccDes= 0.00D+00 IRadAn=         1 IDoV= 1
 ScaDFX=  1.000000  1.000000  1.000000  1.000000
 FoFCou: FMM=F IPFlag=           0 FMFlag=      100000 FMFlg1=           0
         NFxFlg=           0 DoJE=T BraDBF=F KetDBF=T FulRan=T
         Omega=  0.000000  0.000000  1.000000  0.000000  0.000000 ICntrl=     500 IOpCl=  0
         NMat0=    1 NMatS0=    1 NMatT0=    0 NMatD0=    1 NMtDS0=    0 NMtDT0=    0
         I1Cent=           4 NGrid=           0.
 Petite list used in FoFCou.
 Requested convergence on RMS density matrix=1.00D-08 within 128 cycles.
 Requested convergence on MAX density matrix=1.00D-06.
 Requested convergence on             energy=1.00D-06.
 No special actions if energy rises.
 Keep R1 ints in memory in canonical form, NReq=3278450.
 SCF Done:  E(RHF) =  -712.561013141     A.U. after   11 cycles
             Convg  =    0.8964D-08             -V/T =  1.9995
 Calling FoFJK, ICntrl=      2127 FMM=F ISym2X=1 I1Cent= 0 IOpClX= 0 NMat=1 NMatS=1 NMatT=0.
 ***** Axes restored to original set *****
 -------------------------------------------------------------------
 Center     Atomic                   Forces (Hartrees/Bohr)
 Number     Number              X              Y              Z
 -------------------------------------------------------------------
      1        6          -0.006653753   -0.003277915    0.000000000
      2        6           0.003569539    0.001435518    0.000000000
      3        6           0.003145575   -0.000215515    0.000000000
      4        1           0.000933458    0.000472925    0.000000000
      5        6           0.000227505   -0.000817192    0.000000000
      6        1          -0.000353391    0.000442991    0.000000000
      7        1          -0.000061986   -0.000061941    0.000000000
      8       17           0.001102473   -0.002323977    0.000000000
      9        1           0.000586350   -0.000334315    0.000000000
     10        9          -0.002495771    0.004679421    0.000000000
 -------------------------------------------------------------------
 Cartesian Forces:  Max     0.006653753 RMS     0.001975700

 GradGradGradGradGradGradGradGradGradGradGradGradGradGradGradGradGradGrad
 Berny optimization.
 Using GEDIIS/GDIIS optimizer.
 Internal  Forces:  Max     0.007712601 RMS     0.001857684
 Search for a local minimum.
 Step number   3 out of a maximum of   43
 All quantities printed in internal units (Hartrees-Bohrs-Radians)
 Mixed Optimization -- RFO/linear search
 Update second derivatives using D2CorX and points    1    2    3
 DE= -1.04D-03 DEPred=-1.11D-03 R= 9.40D-01
 SS=  1.41D+00  RLast= 9.57D-02 DXNew= 8.4853D-01 2.8703D-01
 Trust test= 9.40D-01 RLast= 9.57D-02 DXMaxT set to 5.05D-01
 Use linear search instead of GDIIS.
     Eigenvalues ---    0.00237   0.01472   0.01527   0.02681   0.02681
     Eigenvalues ---    0.02681   0.02681   0.14766   0.16000   0.16011
     Eigenvalues ---    0.16270   0.20658   0.22294   0.24753   0.28209
     Eigenvalues ---    0.29416   0.31234   0.37186   0.37230   0.37240
     Eigenvalues ---    0.37659   0.49315   0.56527   0.632401000.00000
     Eigenvalues --- 1000.000001000.000001000.000001000.000001000.00000
     Eigenvalues --- 1000.000001000.000001000.00000
 RFO step:  Lambda=-2.16346301D-04 EMin= 2.36824121D-03
 Quartic linear search produced a step of -0.05484.
 Iteration  1 RMS(Cart)=  0.00658659 RMS(Int)=  0.00000777
 Iteration  2 RMS(Cart)=  0.00000801 RMS(Int)=  0.00000000
 Iteration  3 RMS(Cart)=  0.00000000 RMS(Int)=  0.00000000
 ClnCor:  largest displacement from symmetrization is 1.02D-11 for atom     7.
 Variable       Old X    -DE/DX   Delta X   Delta X   Delta X     New X
                                 (Linear)    (Quad)   (Total)
    R1        2.47919   0.00771   0.00128   0.00993   0.01121   2.49040
    R2        3.37075   0.00257  -0.00048   0.00941   0.00893   3.37968
    R3        2.01379  -0.00060   0.00013  -0.00182  -0.00169   2.01209
    R4        2.73984   0.00386   0.00179   0.00723   0.00902   2.74886
    R5        2.59754   0.00530  -0.00189   0.01307   0.01118   2.60872
    R6        2.02436   0.00006  -0.00063   0.00143   0.00080   2.02516
    R7        2.50577  -0.00047  -0.00004  -0.00121  -0.00125   2.50451
    R8        2.02353   0.00056   0.00010   0.00119   0.00130   2.02483
    R9        2.02528  -0.00006  -0.00005  -0.00003  -0.00008   2.02520
    A1        2.15446  -0.00061   0.00151  -0.00490  -0.00339   2.15107
    A2        2.13986   0.00062  -0.00210   0.00777   0.00567   2.14553
    A3        1.98886   0.00000   0.00059  -0.00287  -0.00228   1.98658
    A4        2.27358   0.00033  -0.00080   0.00470   0.00391   2.27749
    A5        2.01645  -0.00002   0.00103  -0.00296  -0.00193   2.01452
    A6        1.99315  -0.00031  -0.00023  -0.00174  -0.00197   1.99118
    A7        2.01151   0.00140   0.00181   0.00301   0.00483   2.01634
    A8        2.15666  -0.00068  -0.00205   0.00182  -0.00023   2.15643
    A9        2.11501  -0.00072   0.00023  -0.00483  -0.00459   2.11042
   A10        2.13222  -0.00008  -0.00079   0.00147   0.00068   2.13290
   A11        2.10882  -0.00002  -0.00040   0.00087   0.00047   2.10929
   A12        2.04214   0.00010   0.00119  -0.00234  -0.00115   2.04099
    D1        0.00000   0.00000   0.00000   0.00000   0.00000   0.00000
    D2        3.14159   0.00000   0.00000   0.00000   0.00000   3.14159
    D3        3.14159   0.00000   0.00000   0.00000   0.00000   3.14159
    D4        0.00000   0.00000   0.00000   0.00000   0.00000   0.00000
    D5        0.00000   0.00000   0.00000   0.00000   0.00000   0.00000
    D6        3.14159   0.00000   0.00000   0.00000   0.00000   3.14159
    D7        3.14159   0.00000   0.00000   0.00000   0.00000   3.14159
    D8        0.00000   0.00000   0.00000   0.00000   0.00000   0.00000
    D9        0.00000   0.00000   0.00000   0.00000   0.00000   0.00000
   D10        3.14159   0.00000   0.00000   0.00000   0.00000   3.14159
   D11        3.14159   0.00000   0.00000   0.00000   0.00000   3.14159
   D12        0.00000   0.00000   0.00000   0.00000   0.00000   0.00000
         Item               Value     Threshold  Converged?
 Maximum Force            0.007713     0.000450     NO 
 RMS     Force            0.001858     0.000300     NO 
 Maximum Displacement     0.018046     0.001800     NO 
 RMS     Displacement     0.006586     0.001200     NO 
 Predicted change in Energy=-1.117590D-04
 GradGradGradGradGradGradGradGradGradGradGradGradGradGradGradGradGradGrad

                          Input orientation:                          
 ---------------------------------------------------------------------
 Center     Atomic      Atomic             Coordinates (Angstroms)
 Number     Number       Type             X           Y           Z
 ---------------------------------------------------------------------
      1          6           0       -2.092497   -1.698423    0.000000
      2          6           0       -1.329571   -0.623849    0.000000
      3          6           0        0.119269   -0.494125    0.000000
      4          1           0        0.665502   -1.416136    0.000000
      5          6           0        0.750399    0.671285    0.000000
      6          1           0        0.225120    1.605189    0.000000
      7          1           0        1.821139    0.716455    0.000000
      8         17           0       -1.440556   -3.363813    0.000000
      9          1           0       -3.156283   -1.653018    0.000000
     10          9           0       -2.003105    0.581165    0.000000
 ---------------------------------------------------------------------
                    Distance matrix (angstroms):
                    1          2          3          4          5
     1  C    0.000000
     2  C    1.317864   0.000000
     3  C    2.518382   1.454636   0.000000
     4  H    2.772408   2.146633   1.071669   0.000000
     5  C    3.701024   2.450235   1.325332   2.089147   0.000000
     6  H    4.035494   2.717661   2.101981   3.053252   1.071492
     7  H    4.598715   3.423943   2.088507   2.425581   1.071692
     8  Cl   1.788450   2.742211   3.266216   2.868610   4.591547
     9  H    1.064755   2.096680   3.474519   3.829119   4.545828
    10  F    2.281341   1.380474   2.379227   3.333268   2.754978
                    6          7          8          9         10
     6  H    0.000000
     7  H    1.826780   0.000000
     8  Cl   5.240750   5.223719   0.000000
     9  H    4.695722   5.512634   2.422920   0.000000
    10  F    2.452267   3.826635   3.984886   2.514239   0.000000
 Stoichiometry    C4H4ClF
 Framework group  CS[SG(C4H4ClF)]
 Deg. of freedom    17
 Full point group                 CS      NOp   2
 Largest Abelian subgroup         CS      NOp   2
 Largest concise Abelian subgroup C1      NOp   1
                         Standard orientation:                         
 ---------------------------------------------------------------------
 Center     Atomic      Atomic             Coordinates (Angstroms)
 Number     Number       Type             X           Y           Z
 ---------------------------------------------------------------------
      1          6           0       -1.121895   -0.050110    0.000000
      2          6           0        0.000000    0.641350    0.000000
      3          6           0        1.384515    0.195159    0.000000
      4          1           0        1.527452   -0.866936    0.000000
      5          6           0        2.420534    1.021699    0.000000
      6          1           0        2.301530    2.086562    0.000000
      7          1           0        3.423941    0.645272    0.000000
      8         17           0       -1.171848   -1.837862    0.000000
      9          1           0       -2.083541    0.406990    0.000000
     10          9           0       -0.149654    2.013688    0.000000
 ---------------------------------------------------------------------
 Rotational constants (GHZ):      5.6190690      1.6344327      1.2661457
 Standard basis: 6-31G (6D, 7F)
 There are    53 symmetry adapted basis functions of A'  symmetry.
 There are    13 symmetry adapted basis functions of A"  symmetry.
 Integral buffers will be    131072 words long.
 Raffenetti 1 integral format.
 Two-electron integral symmetry is turned on.
    66 basis functions,   172 primitive gaussians,    66 cartesian basis functions
    27 alpha electrons       27 beta electrons
       nuclear repulsion energy       260.0540029173 Hartrees.
 NAtoms=   10 NActive=   10 NUniq=   10 SFac= 7.50D-01 NAtFMM=   80 NAOKFM=F Big=F
 One-electron integrals computed using PRISM.
 NBasis=    66 RedAO= T  NBF=    53    13
 NBsUse=    66 1.00D-06 NBFU=    53    13
 Initial guess read from the read-write file.
 B after Tr=     0.000000    0.000000    0.000000
         Rot=    1.000000    0.000000    0.000000    0.000000 Ang=   0.00 deg.
 Initial guess orbital symmetries:
       Occupied  (A') (A') (A') (A') (A') (A') (A') (A') (A') (A")
                 (A') (A') (A') (A') (A') (A') (A') (A') (A") (A')
                 (A') (A') (A') (A") (A') (A") (A")
       Virtual   (A") (A') (A') (A") (A') (A') (A') (A') (A') (A')
                 (A') (A') (A') (A") (A') (A") (A') (A") (A') (A')
                 (A') (A") (A") (A') (A') (A') (A') (A') (A') (A')
                 (A') (A') (A') (A') (A") (A') (A') (A') (A')
 Requested convergence on RMS density matrix=1.00D-08 within 128 cycles.
 Requested convergence on MAX density matrix=1.00D-06.
 Requested convergence on             energy=1.00D-06.
 No special actions if energy rises.
 Keep R1 ints in memory in canonical form, NReq=3278450.
 SCF Done:  E(RHF) =  -712.561117501     A.U. after   10 cycles
             Convg  =    0.7893D-08             -V/T =  1.9996
 Calling FoFJK, ICntrl=      2127 FMM=F ISym2X=1 I1Cent= 0 IOpClX= 0 NMat=1 NMatS=1 NMatT=0.
 ***** Axes restored to original set *****
 -------------------------------------------------------------------
 Center     Atomic                   Forces (Hartrees/Bohr)
 Number     Number              X              Y              Z
 -------------------------------------------------------------------
      1        6           0.000235988    0.001612832    0.000000000
      2        6          -0.000215968   -0.001082687    0.000000000
      3        6          -0.000078068   -0.001476211    0.000000000
      4        1          -0.000076706    0.000235552    0.000000000
      5        6          -0.000093283    0.000805860    0.000000000
      6        1          -0.000162925   -0.000034640    0.000000000
      7        1          -0.000026092   -0.000188231    0.000000000
      8       17           0.000535630   -0.000350824    0.000000000
      9        1           0.000005834    0.000166584    0.000000000
     10        9          -0.000124411    0.000311766    0.000000000
 -------------------------------------------------------------------
 Cartesian Forces:  Max     0.001612832 RMS     0.000496482

 GradGradGradGradGradGradGradGradGradGradGradGradGradGradGradGradGradGrad
 Berny optimization.
 Using GEDIIS/GDIIS optimizer.
 Internal  Forces:  Max     0.001614936 RMS     0.000412964
 Search for a local minimum.
 Step number   4 out of a maximum of   43
 All quantities printed in internal units (Hartrees-Bohrs-Radians)
 Mixed Optimization -- En-DIIS/RFO-DIIS
 Update second derivatives using D2CorX and points    1    2    3    4
 DE= -1.04D-04 DEPred=-1.12D-04 R= 9.34D-01
 SS=  1.41D+00  RLast= 2.32D-02 DXNew= 8.4853D-01 6.9511D-02
 Trust test= 9.34D-01 RLast= 2.32D-02 DXMaxT set to 5.05D-01
 Use linear search instead of GDIIS.
     Eigenvalues ---    0.00237   0.01472   0.01521   0.02681   0.02681
     Eigenvalues ---    0.02681   0.02681   0.14919   0.16003   0.16024
     Eigenvalues ---    0.16197   0.19824   0.22513   0.24843   0.27692
     Eigenvalues ---    0.29962   0.31212   0.37165   0.37230   0.37233
     Eigenvalues ---    0.37834   0.47553   0.56387   0.736321000.00000
     Eigenvalues --- 1000.000001000.000001000.000001000.000001000.00000
     Eigenvalues --- 1000.000001000.000001000.00000
 RFO step:  Lambda=-1.44386266D-05 EMin= 2.36824121D-03
 Quartic linear search produced a step of -0.05777.
 Iteration  1 RMS(Cart)=  0.00291886 RMS(Int)=  0.00000214
 Iteration  2 RMS(Cart)=  0.00000386 RMS(Int)=  0.00000000
 Iteration  3 RMS(Cart)=  0.00000000 RMS(Int)=  0.00000000
 ClnCor:  largest displacement from symmetrization is 4.20D-12 for atom     7.
 Variable       Old X    -DE/DX   Delta X   Delta X   Delta X     New X
                                 (Linear)    (Quad)   (Total)
    R1        2.49040  -0.00161  -0.00065  -0.00137  -0.00202   2.48839
    R2        3.37968   0.00052  -0.00052   0.00294   0.00242   3.38210
    R3        2.01209   0.00000   0.00010  -0.00023  -0.00014   2.01196
    R4        2.74886  -0.00049  -0.00052  -0.00062  -0.00114   2.74773
    R5        2.60872   0.00033  -0.00065   0.00207   0.00142   2.61014
    R6        2.02516  -0.00024  -0.00005  -0.00054  -0.00059   2.02458
    R7        2.50451   0.00038   0.00007   0.00039   0.00046   2.50498
    R8        2.02483   0.00005  -0.00007   0.00031   0.00024   2.02506
    R9        2.02520  -0.00003   0.00000  -0.00009  -0.00009   2.02511
    A1        2.15107  -0.00072   0.00020  -0.00336  -0.00317   2.14791
    A2        2.14553   0.00019  -0.00033   0.00129   0.00096   2.14650
    A3        1.98658   0.00053   0.00013   0.00207   0.00220   1.98878
    A4        2.27749  -0.00025  -0.00023  -0.00014  -0.00036   2.27713
    A5        2.01452   0.00018   0.00011   0.00034   0.00045   2.01497
    A6        1.99118   0.00007   0.00011  -0.00021  -0.00009   1.99109
    A7        2.01634   0.00049  -0.00028   0.00282   0.00254   2.01887
    A8        2.15643  -0.00088   0.00001  -0.00382  -0.00381   2.15262
    A9        2.11042   0.00038   0.00027   0.00100   0.00127   2.11169
   A10        2.13290  -0.00009  -0.00004  -0.00041  -0.00045   2.13245
   A11        2.10929  -0.00015  -0.00003  -0.00079  -0.00081   2.10848
   A12        2.04099   0.00023   0.00007   0.00120   0.00127   2.04226
    D1        0.00000   0.00000   0.00000   0.00000   0.00000   0.00000
    D2        3.14159   0.00000   0.00000   0.00000   0.00000   3.14159
    D3        3.14159   0.00000   0.00000   0.00000   0.00000   3.14159
    D4        0.00000   0.00000   0.00000   0.00000   0.00000   0.00000
    D5        0.00000   0.00000   0.00000   0.00000   0.00000   0.00000
    D6        3.14159   0.00000   0.00000   0.00000   0.00000   3.14159
    D7        3.14159   0.00000   0.00000   0.00000   0.00000   3.14159
    D8        0.00000   0.00000   0.00000   0.00000   0.00000   0.00000
    D9        0.00000   0.00000   0.00000   0.00000   0.00000   0.00000
   D10        3.14159   0.00000   0.00000   0.00000   0.00000   3.14159
   D11        3.14159   0.00000   0.00000   0.00000   0.00000   3.14159
   D12        0.00000   0.00000   0.00000   0.00000   0.00000   0.00000
         Item               Value     Threshold  Converged?
 Maximum Force            0.001615     0.000450     NO 
 RMS     Force            0.000413     0.000300     NO 
 Maximum Displacement     0.007973     0.001800     NO 
 RMS     Displacement     0.002921     0.001200     NO 
 Predicted change in Energy=-7.621115D-06
 GradGradGradGradGradGradGradGradGradGradGradGradGradGradGradGradGradGrad

                          Input orientation:                          
 ---------------------------------------------------------------------
 Center     Atomic      Atomic             Coordinates (Angstroms)
 Number     Number       Type             X           Y           Z
 ---------------------------------------------------------------------
      1          6           0       -2.092607   -1.696510    0.000000
      2          6           0       -1.328782   -0.623884    0.000000
      3          6           0        0.119685   -0.496782    0.000000
      4          1           0        0.666463   -1.418110    0.000000
      5          6           0        0.748562    0.670124    0.000000
      6          1           0        0.220901    1.602829    0.000000
      7          1           0        1.819198    0.716595    0.000000
      8         17           0       -1.437274   -3.361946    0.000000
      9          1           0       -3.156300   -1.650629    0.000000
     10          9           0       -2.000431    0.583042    0.000000
 ---------------------------------------------------------------------
                    Distance matrix (angstroms):
                    1          2          3          4          5
     1  C    0.000000
     2  C    1.316797   0.000000
     3  C    2.516661   1.454034   0.000000
     4  H    2.773080   2.147510   1.071359   0.000000
     5  C    3.697729   2.447410   1.325578   2.089847   0.000000
     6  H    4.029634   2.712889   2.102049   3.053620   1.071618
     7  H    4.596226   3.421501   2.088212   2.426059   1.071644
     8  Cl   1.789731   2.740210   3.260871   2.864299   4.586444
     9  H    1.064682   2.096193   3.473247   3.829828   4.542449
    10  F    2.281415   1.381225   2.379268   3.334207   2.750372
                    6          7          8          9         10
     6  H    0.000000
     7  H    1.827557   0.000000
     8  Cl   5.234360   5.219110   0.000000
     9  H    4.689400   5.509931   2.425625   0.000000
    10  F    2.444234   3.821964   3.984981   2.515019   0.000000
 Stoichiometry    C4H4ClF
 Framework group  CS[SG(C4H4ClF)]
 Deg. of freedom    17
 Full point group                 CS      NOp   2
 Largest Abelian subgroup         CS      NOp   2
 Largest concise Abelian subgroup C1      NOp   1
                         Standard orientation:                         
 ---------------------------------------------------------------------
 Center     Atomic      Atomic             Coordinates (Angstroms)
 Number     Number       Type             X           Y           Z
 ---------------------------------------------------------------------
      1          6           0       -1.122755   -0.047105    0.000000
      2          6           0        0.000000    0.640917    0.000000
      3          6           0        1.382630    0.190864    0.000000
      4          1           0        1.525114   -0.870978    0.000000
      5          6           0        2.418113    1.018469    0.000000
      6          1           0        2.297674    2.083298    0.000000
      7          1           0        3.421501    0.642125    0.000000
      8         17           0       -1.171665   -1.836168    0.000000
      9          1           0       -2.083602    0.411504    0.000000
     10          9           0       -0.145590    2.014448    0.000000
 ---------------------------------------------------------------------
 Rotational constants (GHZ):      5.6228435      1.6369356      1.2678392
 Standard basis: 6-31G (6D, 7F)
 There are    53 symmetry adapted basis functions of A'  symmetry.
 There are    13 symmetry adapted basis functions of A"  symmetry.
 Integral buffers will be    131072 words long.
 Raffenetti 1 integral format.
 Two-electron integral symmetry is turned on.
    66 basis functions,   172 primitive gaussians,    66 cartesian basis functions
    27 alpha electrons       27 beta electrons
       nuclear repulsion energy       260.1413118653 Hartrees.
 NAtoms=   10 NActive=   10 NUniq=   10 SFac= 7.50D-01 NAtFMM=   80 NAOKFM=F Big=F
 One-electron integrals computed using PRISM.
 NBasis=    66 RedAO= T  NBF=    53    13
 NBsUse=    66 1.00D-06 NBFU=    53    13
 Initial guess read from the read-write file.
 B after Tr=     0.000000    0.000000    0.000000
         Rot=    1.000000    0.000000    0.000000    0.000000 Ang=   0.00 deg.
 Initial guess orbital symmetries:
       Occupied  (A') (A') (A') (A') (A') (A') (A') (A') (A') (A")
                 (A') (A') (A') (A') (A') (A') (A') (A') (A") (A')
                 (A') (A') (A') (A") (A') (A") (A")
       Virtual   (A") (A') (A') (A") (A') (A') (A') (A') (A') (A')
                 (A') (A') (A') (A") (A') (A") (A') (A") (A') (A')
                 (A') (A") (A") (A') (A') (A') (A') (A') (A') (A')
                 (A') (A') (A') (A') (A") (A') (A') (A') (A')
 Requested convergence on RMS density matrix=1.00D-08 within 128 cycles.
 Requested convergence on MAX density matrix=1.00D-06.
 Requested convergence on             energy=1.00D-06.
 No special actions if energy rises.
 Keep R1 ints in memory in canonical form, NReq=3278450.
 SCF Done:  E(RHF) =  -712.561125248     A.U. after    9 cycles
             Convg  =    0.5660D-08             -V/T =  1.9996
 Calling FoFJK, ICntrl=      2127 FMM=F ISym2X=1 I1Cent= 0 IOpClX= 0 NMat=1 NMatS=1 NMatT=0.
 ***** Axes restored to original set *****
 -------------------------------------------------------------------
 Center     Atomic                   Forces (Hartrees/Bohr)
 Number     Number              X              Y              Z
 -------------------------------------------------------------------
      1        6          -0.000159863    0.000199323    0.000000000
      2        6          -0.000163267    0.000070931    0.000000000
      3        6           0.000102981   -0.000262842    0.000000000
      4        1          -0.000063176    0.000095330    0.000000000
      5        6           0.000131173    0.000399063    0.000000000
      6        1           0.000007162   -0.000136201    0.000000000
      7        1           0.000017037   -0.000032534    0.000000000
      8       17           0.000062065   -0.000044530    0.000000000
      9        1          -0.000033255   -0.000048231    0.000000000
     10        9           0.000099142   -0.000240310    0.000000000
 -------------------------------------------------------------------
 Cartesian Forces:  Max     0.000399063 RMS     0.000124231

 GradGradGradGradGradGradGradGradGradGradGradGradGradGradGradGradGradGrad
 Berny optimization.
 Using GEDIIS/GDIIS optimizer.
 Internal  Forces:  Max     0.000276469 RMS     0.000090391
 Search for a local minimum.
 Step number   5 out of a maximum of   43
 All quantities printed in internal units (Hartrees-Bohrs-Radians)
 Mixed Optimization -- En-DIIS/RFO-DIIS
 Swaping is turned off.
 Update second derivatives using D2CorX and points    1    2    3    4    5
 DE= -7.75D-06 DEPred=-7.62D-06 R= 1.02D+00
 SS=  1.41D+00  RLast= 7.42D-03 DXNew= 8.4853D-01 2.2264D-02
 Trust test= 1.02D+00 RLast= 7.42D-03 DXMaxT set to 5.05D-01
     Eigenvalues ---    0.00237   0.01473   0.01520   0.02681   0.02681
     Eigenvalues ---    0.02681   0.02681   0.14535   0.15628   0.16024
     Eigenvalues ---    0.16254   0.18506   0.22112   0.24873   0.28360
     Eigenvalues ---    0.30072   0.32071   0.37193   0.37226   0.37472
     Eigenvalues ---    0.37773   0.51302   0.55687   0.733141000.00000
     Eigenvalues --- 1000.000001000.000001000.000001000.000001000.00000
     Eigenvalues --- 1000.000001000.000001000.00000
 En-DIIS/RFO-DIIS IScMMF=        0 using points:     5    4
 RFO step:  Lambda=-4.43340500D-07.
 DIIS coeffs:      1.01627     -0.01627
 Iteration  1 RMS(Cart)=  0.00036410 RMS(Int)=  0.00000008
 Iteration  2 RMS(Cart)=  0.00000009 RMS(Int)=  0.00000000
 ClnCor:  largest displacement from symmetrization is 3.17D-13 for atom     4.
 Variable       Old X    -DE/DX   Delta X   Delta X   Delta X     New X
                                  (DIIS)     (GDIIS)  (Total)
    R1        2.48839  -0.00001  -0.00003  -0.00007  -0.00010   2.48829
    R2        3.38210   0.00006   0.00004   0.00031   0.00035   3.38245
    R3        2.01196   0.00003   0.00000   0.00008   0.00008   2.01204
    R4        2.74773   0.00020  -0.00002   0.00068   0.00066   2.74839
    R5        2.61014  -0.00026   0.00002  -0.00044  -0.00042   2.60972
    R6        2.02458  -0.00011  -0.00001  -0.00034  -0.00035   2.02423
    R7        2.50498   0.00028   0.00001   0.00053   0.00054   2.50551
    R8        2.02506  -0.00012   0.00000  -0.00032  -0.00032   2.02475
    R9        2.02511   0.00002   0.00000   0.00004   0.00004   2.02515
    A1        2.14791  -0.00013  -0.00005  -0.00066  -0.00071   2.14720
    A2        2.14650   0.00011   0.00002   0.00063   0.00064   2.14714
    A3        1.98878   0.00001   0.00004   0.00003   0.00007   1.98885
    A4        2.27713   0.00009  -0.00001   0.00039   0.00039   2.27751
    A5        2.01497  -0.00009   0.00001  -0.00034  -0.00033   2.01464
    A6        1.99109  -0.00001   0.00000  -0.00006  -0.00006   1.99103
    A7        2.01887  -0.00001   0.00004   0.00004   0.00008   2.01895
    A8        2.15262   0.00001  -0.00006  -0.00009  -0.00015   2.15247
    A9        2.11169   0.00000   0.00002   0.00006   0.00008   2.11177
   A10        2.13245  -0.00006  -0.00001  -0.00040  -0.00040   2.13204
   A11        2.10848   0.00000  -0.00001  -0.00005  -0.00007   2.10841
   A12        2.04226   0.00006   0.00002   0.00045   0.00047   2.04273
    D1        0.00000   0.00000   0.00000   0.00000   0.00000   0.00000
    D2        3.14159   0.00000   0.00000   0.00000   0.00000   3.14159
    D3        3.14159   0.00000   0.00000   0.00000   0.00000   3.14159
    D4        0.00000   0.00000   0.00000   0.00000   0.00000   0.00000
    D5        0.00000   0.00000   0.00000   0.00000   0.00000   0.00000
    D6        3.14159   0.00000   0.00000   0.00000   0.00000   3.14159
    D7        3.14159   0.00000   0.00000   0.00000   0.00000   3.14159
    D8        0.00000   0.00000   0.00000   0.00000   0.00000   0.00000
    D9        0.00000   0.00000   0.00000   0.00000   0.00000   0.00000
   D10        3.14159   0.00000   0.00000   0.00000   0.00000   3.14159
   D11        3.14159   0.00000   0.00000   0.00000   0.00000   3.14159
   D12        0.00000   0.00000   0.00000   0.00000   0.00000   0.00000
         Item               Value     Threshold  Converged?
 Maximum Force            0.000276     0.000450     YES
 RMS     Force            0.000090     0.000300     YES
 Maximum Displacement     0.000988     0.001800     YES
 RMS     Displacement     0.000364     0.001200     YES
 Predicted change in Energy=-3.862605D-07
 Optimization completed.
    -- Stationary point found.
                           ----------------------------
                           !   Optimized Parameters   !
                           ! (Angstroms and Degrees)  !
 --------------------------                            --------------------------
 ! Name  Definition              Value          Derivative Info.                !
 --------------------------------------------------------------------------------
 ! R1    R(1,2)                  1.3168         -DE/DX =    0.0                 !
 ! R2    R(1,8)                  1.7897         -DE/DX =    0.0001              !
 ! R3    R(1,9)                  1.0647         -DE/DX =    0.0                 !
 ! R4    R(2,3)                  1.454          -DE/DX =    0.0002              !
 ! R5    R(2,10)                 1.3812         -DE/DX =   -0.0003              !
 ! R6    R(3,4)                  1.0714         -DE/DX =   -0.0001              !
 ! R7    R(3,5)                  1.3256         -DE/DX =    0.0003              !
 ! R8    R(5,6)                  1.0716         -DE/DX =   -0.0001              !
 ! R9    R(5,7)                  1.0716         -DE/DX =    0.0                 !
 ! A1    A(2,1,8)              123.0659         -DE/DX =   -0.0001              !
 ! A2    A(2,1,9)              122.9851         -DE/DX =    0.0001              !
 ! A3    A(8,1,9)              113.949          -DE/DX =    0.0                 !
 ! A4    A(1,2,3)              130.4697         -DE/DX =    0.0001              !
 ! A5    A(1,2,10)             115.4493         -DE/DX =   -0.0001              !
 ! A6    A(3,2,10)             114.0809         -DE/DX =    0.0                 !
 ! A7    A(2,3,4)              115.673          -DE/DX =    0.0                 !
 ! A8    A(2,3,5)              123.3362         -DE/DX =    0.0                 !
 ! A9    A(4,3,5)              120.9908         -DE/DX =    0.0                 !
 ! A10   A(3,5,6)              122.1803         -DE/DX =   -0.0001              !
 ! A11   A(3,5,7)              120.8068         -DE/DX =    0.0                 !
 ! A12   A(6,5,7)              117.0129         -DE/DX =    0.0001              !
 ! D1    D(8,1,2,3)              0.0            -DE/DX =    0.0                 !
 ! D2    D(8,1,2,10)           180.0            -DE/DX =    0.0                 !
 ! D3    D(9,1,2,3)            180.0            -DE/DX =    0.0                 !
 ! D4    D(9,1,2,10)             0.0            -DE/DX =    0.0                 !
 ! D5    D(1,2,3,4)              0.0            -DE/DX =    0.0                 !
 ! D6    D(1,2,3,5)            180.0            -DE/DX =    0.0                 !
 ! D7    D(10,2,3,4)           180.0            -DE/DX =    0.0                 !
 ! D8    D(10,2,3,5)             0.0            -DE/DX =    0.0                 !
 ! D9    D(2,3,5,6)              0.0            -DE/DX =    0.0                 !
 ! D10   D(2,3,5,7)            180.0            -DE/DX =    0.0                 !
 ! D11   D(4,3,5,6)            180.0            -DE/DX =    0.0                 !
 ! D12   D(4,3,5,7)              0.0            -DE/DX =    0.0                 !
 --------------------------------------------------------------------------------
 GradGradGradGradGradGradGradGradGradGradGradGradGradGradGradGradGradGrad

                          Input orientation:                          
 ---------------------------------------------------------------------
 Center     Atomic      Atomic             Coordinates (Angstroms)
 Number     Number       Type             X           Y           Z
 ---------------------------------------------------------------------
      1          6           0       -2.092607   -1.696510    0.000000
      2          6           0       -1.328782   -0.623884    0.000000
      3          6           0        0.119685   -0.496782    0.000000
      4          1           0        0.666463   -1.418110    0.000000
      5          6           0        0.748562    0.670124    0.000000
      6          1           0        0.220901    1.602829    0.000000
      7          1           0        1.819198    0.716595    0.000000
      8         17           0       -1.437274   -3.361946    0.000000
      9          1           0       -3.156300   -1.650629    0.000000
     10          9           0       -2.000431    0.583042    0.000000
 ---------------------------------------------------------------------
                    Distance matrix (angstroms):
                    1          2          3          4          5
     1  C    0.000000
     2  C    1.316797   0.000000
     3  C    2.516661   1.454034   0.000000
     4  H    2.773080   2.147510   1.071359   0.000000
     5  C    3.697729   2.447410   1.325578   2.089847   0.000000
     6  H    4.029634   2.712889   2.102049   3.053620   1.071618
     7  H    4.596226   3.421501   2.088212   2.426059   1.071644
     8  Cl   1.789731   2.740210   3.260871   2.864299   4.586444
     9  H    1.064682   2.096193   3.473247   3.829828   4.542449
    10  F    2.281415   1.381225   2.379268   3.334207   2.750372
                    6          7          8          9         10
     6  H    0.000000
     7  H    1.827557   0.000000
     8  Cl   5.234360   5.219110   0.000000
     9  H    4.689400   5.509931   2.425625   0.000000
    10  F    2.444234   3.821964   3.984981   2.515019   0.000000
 Stoichiometry    C4H4ClF
 Framework group  CS[SG(C4H4ClF)]
 Deg. of freedom    17
 Full point group                 CS      NOp   2
 Largest Abelian subgroup         CS      NOp   2
 Largest concise Abelian subgroup C1      NOp   1
                         Standard orientation:                         
 ---------------------------------------------------------------------
 Center     Atomic      Atomic             Coordinates (Angstroms)
 Number     Number       Type             X           Y           Z
 ---------------------------------------------------------------------
      1          6           0       -1.122755   -0.047105    0.000000
      2          6           0        0.000000    0.640917    0.000000
      3          6           0        1.382630    0.190864    0.000000
      4          1           0        1.525114   -0.870978    0.000000
      5          6           0        2.418113    1.018469    0.000000
      6          1           0        2.297674    2.083298    0.000000
      7          1           0        3.421501    0.642125    0.000000
      8         17           0       -1.171665   -1.836168    0.000000
      9          1           0       -2.083602    0.411504    0.000000
     10          9           0       -0.145590    2.014448    0.000000
 ---------------------------------------------------------------------
 Rotational constants (GHZ):      5.6228435      1.6369356      1.2678392

 **********************************************************************

            Population analysis using the SCF density.

 **********************************************************************

 Orbital symmetries:
       Occupied  (A') (A') (A') (A') (A') (A') (A') (A') (A') (A")
                 (A') (A') (A') (A') (A') (A') (A') (A') (A") (A')
                 (A') (A') (A') (A") (A') (A") (A")
       Virtual   (A") (A') (A') (A") (A') (A') (A') (A') (A') (A')
                 (A') (A') (A') (A") (A') (A") (A') (A") (A') (A')
                 (A') (A") (A") (A') (A') (A') (A') (A') (A') (A')
                 (A') (A') (A') (A') (A") (A') (A') (A') (A')
 The electronic state is 1-A'.
 Alpha  occ. eigenvalues -- -104.83656 -26.31517 -11.36629 -11.31838 -11.26842
 Alpha  occ. eigenvalues --  -11.26039 -10.57660  -8.04510  -8.04102  -8.04081
 Alpha  occ. eigenvalues --   -1.62660  -1.17480  -1.10224  -1.02617  -0.86992
 Alpha  occ. eigenvalues --   -0.77985  -0.72112  -0.71134  -0.69367  -0.63521
 Alpha  occ. eigenvalues --   -0.60295  -0.56403  -0.54207  -0.52192  -0.46711
 Alpha  occ. eigenvalues --   -0.44755  -0.34855
 Alpha virt. eigenvalues --    0.09091   0.17480   0.24487   0.24743   0.27255
 Alpha virt. eigenvalues --    0.28769   0.32817   0.39946   0.47230   0.48058
 Alpha virt. eigenvalues --    0.53345   0.61197   0.63090   0.63233   0.66023
 Alpha virt. eigenvalues --    0.73845   0.76554   0.79333   0.80339   0.81474
 Alpha virt. eigenvalues --    0.84997   0.89059   0.90527   0.95297   1.05854
 Alpha virt. eigenvalues --    1.11302   1.13475   1.16679   1.21663   1.24212
 Alpha virt. eigenvalues --    1.26813   1.35846   1.46708   1.47611   1.58471
 Alpha virt. eigenvalues --    1.60949   1.70000   1.84824   2.55906
          Condensed to atoms (all electrons):
              1          2          3          4          5          6
     1  C    5.655724   0.411112  -0.052714  -0.002329   0.005481   0.000310
     2  C    0.411112   4.750835   0.309024  -0.022022  -0.059179  -0.002068
     3  C   -0.052714   0.309024   5.138194   0.378340   0.565727  -0.047059
     4  H   -0.002329  -0.022022   0.378340   0.434030  -0.027762   0.001894
     5  C    0.005481  -0.059179   0.565727  -0.027762   5.058689   0.400154
     6  H    0.000310  -0.002068  -0.047059   0.001894   0.400154   0.452932
     7  H   -0.000124   0.003207  -0.037325  -0.001659   0.387417  -0.020844
     8  Cl   0.162788  -0.079919   0.005123   0.000294   0.000297  -0.000009
     9  H    0.391757  -0.045131   0.002539  -0.000002  -0.000061  -0.000002
    10  F   -0.067158   0.217515  -0.070067   0.001415   0.004851   0.002517
              7          8          9         10
     1  C   -0.000124   0.162788   0.391757  -0.067158
     2  C    0.003207  -0.079919  -0.045131   0.217515
     3  C   -0.037325   0.005123   0.002539  -0.070067
     4  H   -0.001659   0.000294  -0.000002   0.001415
     5  C    0.387417   0.000297  -0.000061   0.004851
     6  H   -0.020844  -0.000009  -0.000002   0.002517
     7  H    0.483803  -0.000009   0.000001   0.000194
     8  Cl  -0.000009  16.868938  -0.031198   0.001317
[...]
 Red. masses --     1.0956                 1.1158                 1.0957
 Frc consts  --     7.4538                 7.8103                 7.8436
 IR Inten    --     2.1397                 5.3840                20.5898
  Atom  AN      X      Y      Z        X      Y      Z        X      Y      Z
     1   6     0.00   0.00   0.00     0.00   0.00   0.00    -0.08   0.03   0.00
     2   6     0.00   0.00   0.00     0.00   0.00   0.00     0.01   0.01   0.00
     3   6     0.01  -0.09   0.00     0.00  -0.02   0.00     0.00   0.00   0.00
     4   1    -0.13   0.96   0.00    -0.02   0.18   0.00     0.00  -0.01   0.00
     5   6     0.00   0.02   0.00     0.06  -0.08   0.00     0.00   0.00   0.00
     6   1     0.03  -0.24   0.00    -0.07   0.71   0.00     0.00  -0.01   0.00
     7   1     0.00   0.00   0.00    -0.63   0.23   0.00     0.01   0.00   0.00
     8  17     0.00   0.00   0.00     0.00   0.00   0.00     0.00   0.00   0.00
     9   1     0.01   0.00   0.00     0.01  -0.01   0.00     0.91  -0.41   0.00
    10   9     0.00   0.00   0.00     0.00   0.00   0.00     0.00   0.00   0.00

 -------------------
 - Thermochemistry -
 -------------------
 Temperature   298.150 Kelvin.  Pressure   1.00000 Atm.
 Atom     1 has atomic number  6 and mass  12.00000
 Atom     2 has atomic number  6 and mass  12.00000
 Atom     3 has atomic number  6 and mass  12.00000
 Atom     4 has atomic number  1 and mass   1.00783
 Atom     5 has atomic number  6 and mass  12.00000
 Atom     6 has atomic number  1 and mass   1.00783
 Atom     7 has atomic number  1 and mass   1.00783
 Atom     8 has atomic number 17 and mass  34.96885
 Atom     9 has atomic number  1 and mass   1.00783
 Atom    10 has atomic number  9 and mass  18.99840
 Molecular mass:   105.99856 amu.
 Principal axes and moments of inertia in atomic units:
                           1         2         3
     Eigenvalues --   320.965931102.512011423.47795
           X            0.64204   0.76667   0.00000
           Y            0.76667  -0.64204   0.00000
           Z            0.00000   0.00000   1.00000
 This molecule is an asymmetric top.
 Rotational symmetry number  1.
 Rotational temperatures (Kelvin)      0.26985     0.07856     0.06085
 Rotational constants (GHZ):           5.62284     1.63694     1.26784
 Zero-point vibrational energy     196192.4 (Joules/Mol)
                                   46.89110 (Kcal/Mol)
 Warning -- explicit consideration of   6 degrees of freedom as
           vibrations may cause significant error
 Vibrational temperatures:    189.70   262.20   399.56   472.17   636.22
          (Kelvin)            689.14   938.80  1148.28  1208.81  1365.81
                             1407.38  1640.58  1650.82  1688.75  1879.15
                             2107.37  2119.28  2309.70  2624.69  2766.37
                             4824.60  4889.15  4959.24  5015.21
 
 Zero-point correction=                           0.074726 (Hartree/Particle)
 Thermal correction to Energy=                    0.080621
 Thermal correction to Enthalpy=                  0.081565
 Thermal correction to Gibbs Free Energy=         0.044332
 Sum of electronic and zero-point Energies=           -712.486400
 Sum of electronic and thermal Energies=              -712.480504
 Sum of electronic and thermal Enthalpies=            -712.479560
 Sum of electronic and thermal Free Energies=         -712.516793
 
                     E (Thermal)             CV                S
                      KCal/Mol        Cal/Mol-Kelvin    Cal/Mol-Kelvin
 Total                   50.590             19.872             78.364
 Electronic               0.000              0.000              0.000
 Translational            0.889              2.981             39.892
 Rotational               0.889              2.981             27.712
 Vibrational             48.813             13.910             10.760
 Vibration     1          0.612              1.922              2.919
 Vibration     2          0.630              1.864              2.305
 Vibration     3          0.679              1.715              1.548
 Vibration     4          0.711              1.619              1.269
 Vibration     5          0.802              1.378              0.820
 Vibration     6          0.835              1.297              0.713
                       Q            Log10(Q)             Ln(Q)
 Total Bot       0.406305D-20        -20.391148        -46.952353
 Total V=0       0.955489D+14         13.980226         32.190659
 Vib (Bot)       0.372824D-33        -33.428496        -76.971956
 Vib (Bot)    1  0.154553D+01          0.189077          0.435367
 Vib (Bot)    2  0.110126D+01          0.041888          0.096451
 Vib (Bot)    3  0.693151D+00         -0.159172         -0.366507
 Vib (Bot)    4  0.569994D+00         -0.244130         -0.562130
 Vib (Bot)    5  0.390256D+00         -0.408651         -0.940953
 Vib (Bot)    6  0.349484D+00         -0.456573         -1.051299
 Vib (V=0)       0.876754D+01          0.942878          2.171056
 Vib (V=0)    1  0.212440D+01          0.327235          0.753487
 Vib (V=0)    2  0.170945D+01          0.232856          0.536170
 Vib (V=0)    3  0.135467D+01          0.131833          0.303557
 Vib (V=0)    4  0.125822D+01          0.099756          0.229696
 Vib (V=0)    5  0.113427D+01          0.054717          0.125990
 Vib (V=0)    6  0.111003D+01          0.045335          0.104389
 Electronic      0.100000D+01          0.000000          0.000000
 Translational   0.428948D+08          7.632405         17.574262
 Rotational      0.254064D+06          5.404943         12.445341
 ***** Axes restored to original set *****
 -------------------------------------------------------------------
 Center     Atomic                   Forces (Hartrees/Bohr)
 Number     Number              X              Y              Z
 -------------------------------------------------------------------
      1        6          -0.000159869    0.000199328    0.000000000
      2        6          -0.000163267    0.000070924    0.000000000
      3        6           0.000102982   -0.000262846    0.000000000
      4        1          -0.000063176    0.000095330    0.000000000
      5        6           0.000131175    0.000399064    0.000000000
      6        1           0.000007160   -0.000136198    0.000000000
      7        1           0.000017040   -0.000032533    0.000000000
      8       17           0.000062066   -0.000044531    0.000000000
      9        1          -0.000033250   -0.000048231    0.000000000
     10        9           0.000099140   -0.000240307    0.000000000
 -------------------------------------------------------------------
 Cartesian Forces:  Max     0.000399064 RMS     0.000124231

 GradGradGradGradGradGradGradGradGradGradGradGradGradGradGradGradGradGrad
 Berny optimization.
 Internal  Forces:  Max     0.000276475 RMS     0.000090391
 Search for a local minimum.
 Step number   1 out of a maximum of    2
 All quantities printed in internal units (Hartrees-Bohrs-Radians)
 Second derivative matrix not updated -- analytic derivatives used.
     Eigenvalues ---    0.00641   0.02514   0.03133   0.03849   0.04081
     Eigenvalues ---    0.05687   0.05776   0.11689   0.12579   0.13600
     Eigenvalues ---    0.16163   0.17900   0.21514   0.23478   0.26197
     Eigenvalues ---    0.29116   0.40625   0.40826   0.40875   0.42658
     Eigenvalues ---    0.43181   0.45196   0.73713   0.762391000.00000
     Eigenvalues --- 1000.000001000.000001000.000001000.000001000.00000
     Eigenvalues --- 1000.000001000.000001000.00000
 Angle between quadratic step and forces=  35.47 degrees.
 Linear search not attempted -- first point.
 Iteration  1 RMS(Cart)=  0.00033994 RMS(Int)=  0.00000008
 Iteration  2 RMS(Cart)=  0.00000011 RMS(Int)=  0.00000000
 ClnCor:  largest displacement from symmetrization is 6.20D-11 for atom     1.
 Variable       Old X    -DE/DX   Delta X   Delta X   Delta X     New X
                                 (Linear)    (Quad)   (Total)
    R1        2.48839  -0.00001   0.00000  -0.00001  -0.00001   2.48838
    R2        3.38210   0.00006   0.00000   0.00053   0.00053   3.38263
    R3        2.01196   0.00003   0.00000   0.00003   0.00003   2.01199
    R4        2.74773   0.00020   0.00000   0.00051   0.00051   2.74823
    R5        2.61014  -0.00026   0.00000  -0.00056  -0.00056   2.60958
    R6        2.02458  -0.00011   0.00000  -0.00030  -0.00030   2.02427
    R7        2.50498   0.00028   0.00000   0.00040   0.00040   2.50537
    R8        2.02506  -0.00012   0.00000  -0.00031  -0.00031   2.02475
    R9        2.02511   0.00002   0.00000   0.00002   0.00002   2.02513
    A1        2.14791  -0.00013   0.00000  -0.00071  -0.00071   2.14720
    A2        2.14650   0.00011   0.00000   0.00083   0.00083   2.14732
    A3        1.98878   0.00001   0.00000  -0.00012  -0.00012   1.98866
    A4        2.27713   0.00009   0.00000   0.00025   0.00025   2.27738
    A5        2.01497  -0.00009   0.00000  -0.00017  -0.00017   2.01480
    A6        1.99109  -0.00001   0.00000  -0.00008  -0.00008   1.99101
    A7        2.01887  -0.00001   0.00000   0.00004   0.00004   2.01892
    A8        2.15262   0.00001   0.00000  -0.00017  -0.00017   2.15245
    A9        2.11169   0.00000   0.00000   0.00013   0.00013   2.11182
   A10        2.13245  -0.00006   0.00000  -0.00043  -0.00043   2.13202
   A11        2.10848   0.00000   0.00000  -0.00016  -0.00016   2.10832
   A12        2.04226   0.00006   0.00000   0.00059   0.00059   2.04285
    D1        0.00000   0.00000   0.00000   0.00000   0.00000   0.00000
    D2        3.14159   0.00000   0.00000   0.00000   0.00000   3.14159
    D3        3.14159   0.00000   0.00000   0.00000   0.00000   3.14159
    D4        0.00000   0.00000   0.00000   0.00000   0.00000   0.00000
    D5        0.00000   0.00000   0.00000   0.00000   0.00000   0.00000
    D6        3.14159   0.00000   0.00000   0.00000   0.00000   3.14159
    D7        3.14159   0.00000   0.00000   0.00000   0.00000   3.14159
    D8        0.00000   0.00000   0.00000   0.00000   0.00000   0.00000
    D9        0.00000   0.00000   0.00000   0.00000   0.00000   0.00000
   D10        3.14159   0.00000   0.00000   0.00000   0.00000   3.14159
   D11        3.14159   0.00000   0.00000   0.00000   0.00000   3.14159
   D12        0.00000   0.00000   0.00000   0.00000   0.00000   0.00000
         Item               Value     Threshold  Converged?
 Maximum Force            0.000276     0.000450     YES
 RMS     Force            0.000090     0.000300     YES
 Maximum Displacement     0.000898     0.001800     YES
 RMS     Displacement     0.000340     0.001200     YES
 Predicted change in Energy=-3.721483D-07
 Optimization completed.
    -- Stationary point found.
                           ----------------------------
                           !   Optimized Parameters   !
                           ! (Angstroms and Degrees)  !
 --------------------------                            --------------------------
 ! Name  Definition              Value          Derivative Info.                !
 --------------------------------------------------------------------------------
 ! R1    R(1,2)                  1.3168         -DE/DX =    0.0                 !
 ! R2    R(1,8)                  1.7897         -DE/DX =    0.0001              !
 ! R3    R(1,9)                  1.0647         -DE/DX =    0.0                 !
 ! R4    R(2,3)                  1.454          -DE/DX =    0.0002              !
 ! R5    R(2,10)                 1.3812         -DE/DX =   -0.0003              !
 ! R6    R(3,4)                  1.0714         -DE/DX =   -0.0001              !
 ! R7    R(3,5)                  1.3256         -DE/DX =    0.0003              !
 ! R8    R(5,6)                  1.0716         -DE/DX =   -0.0001              !
 ! R9    R(5,7)                  1.0716         -DE/DX =    0.0                 !
 ! A1    A(2,1,8)              123.0659         -DE/DX =   -0.0001              !
 ! A2    A(2,1,9)              122.9851         -DE/DX =    0.0001              !
 ! A3    A(8,1,9)              113.949          -DE/DX =    0.0                 !
 ! A4    A(1,2,3)              130.4697         -DE/DX =    0.0001              !
 ! A5    A(1,2,10)             115.4493         -DE/DX =   -0.0001              !
 ! A6    A(3,2,10)             114.0809         -DE/DX =    0.0                 !
 ! A7    A(2,3,4)              115.673          -DE/DX =    0.0                 !
 ! A8    A(2,3,5)              123.3362         -DE/DX =    0.0                 !
 ! A9    A(4,3,5)              120.9908         -DE/DX =    0.0                 !
 ! A10   A(3,5,6)              122.1803         -DE/DX =   -0.0001              !
 ! A11   A(3,5,7)              120.8068         -DE/DX =    0.0                 !
 ! A12   A(6,5,7)              117.0129         -DE/DX =    0.0001              !
 ! D1    D(8,1,2,3)              0.0            -DE/DX =    0.0                 !
 ! D2    D(8,1,2,10)           180.0            -DE/DX =    0.0                 !
 ! D3    D(9,1,2,3)            180.0            -DE/DX =    0.0                 !
 ! D4    D(9,1,2,10)             0.0            -DE/DX =    0.0                 !
 ! D5    D(1,2,3,4)              0.0            -DE/DX =    0.0                 !
 ! D6    D(1,2,3,5)            180.0            -DE/DX =    0.0                 !
 ! D7    D(10,2,3,4)           180.0            -DE/DX =    0.0                 !
 ! D8    D(10,2,3,5)             0.0            -DE/DX =    0.0                 !
 ! D9    D(2,3,5,6)              0.0            -DE/DX =    0.0                 !
 ! D10   D(2,3,5,7)            180.0            -DE/DX =    0.0                 !
 ! D11   D(4,3,5,6)            180.0            -DE/DX =    0.0                 !
 ! D12   D(4,3,5,7)              0.0            -DE/DX =    0.0                 !
 --------------------------------------------------------------------------------
 GradGradGradGradGradGradGradGradGradGradGradGradGradGradGradGradGradGrad

 1\1\GINC-MALLOS69\Freq\RHF\6-31G\C4H4Cl1F1\MARLIN\26-Oct-2024\0\\#N Ge
 om=AllCheck Guess=TCheck SCRF=Check GenChk RHF/6-31G Freq\\Title Card 
 Required\\0,1\C,-2.0926067168,-1.6965096042,0.\C,-1.3287823553,-0.6238
 839878,0.\C,0.119685336,-0.4967823589,0.\H,0.6664633652,-1.4181098983,
 0.\C,0.7485623683,0.6701239506,0.\H,0.220901126,1.6028287536,0.\H,1.81
 91984063,0.7165952164,0.\Cl,-1.4372738701,-3.3619455486,0.\H,-3.156300
 1353,-1.6506290703,0.\F,-2.0004309943,0.5830421275,0.\\Version=EM64L-G
 09RevA.01\State=1-A'\HF=-712.5611252\RMSD=1.188e-09\RMSF=1.242e-04\Zer
 oPoint=0.0747257\Thermal=0.0806209\Dipole=0.4589008,0.2791775,0.\Dipol
 eDeriv=-0.1879065,-0.6613044,0.,-0.0990215,0.6957975,0.,0.,0.,-0.34032
 03,0.7022126,0.1210285,0.,0.0145342,0.9646559,0.,0.,0.,0.3767894,-0.03
 43841,0.01378,0.,-0.2092781,-0.1906927,0.,0.,0.,-0.2106819,0.0242495,-
 0.0007148,0.,0.0503416,0.0074007,0.,0.,0.,0.1893084,0.0805829,-0.11017
 11,0.,0.047848,0.1157879,0.,0.,0.,-0.2810703,0.0476966,0.0568977,0.,0.
 0442257,0.0238656,0.,0.,0.,0.1955637,-0.0806654,-0.0250209,0.,0.002891
 3,0.0608741,0.,0.,0.,0.159613,-0.1515462,0.2493318,0.,-0.0138869,-0.63
 5286,0.,0.,0.,-0.0991646,0.0729849,0.0573135,0.,0.0355133,-0.0683198,0
 .,0.,0.,0.2728369,-0.4732241,0.2988598,0.,0.1268324,-0.9740831,0.,0.,0
 .,-0.2628744\Polar=54.9466976,19.9947865,82.1763438,0.,0.,16.6903767\H
 yperPolar=-3.4315871,19.7522043,59.8513704,135.1492049,0.,0.,0.,-0.680
 6519,0.8068321,0.\PG=CS [SG(C4H4Cl1F1)]\NImag=0\\0.81210863,0.22458452
 ,0.73541543,0.,0.,0.12249922,-0.32017831,-0.25743562,0.,0.80144982,-0.
 27459350,-0.46742448,0.,0.19977426,0.88525529,0.,0.,-0.07840655,0.,0.,
 0.17836347,-0.01859966,-0.01833486,0.,-0.29322952,-0.00456828,0.,0.739
 89708,-0.04394828,0.00392345,0.,-0.01727320,-0.11805270,0.,0.09484458,
 0.99438195,0.,0.,0.01283889,0.,0.,-0.08786258,0.,0.,0.16859848,-0.0013
 3312,0.00071146,0.,-0.01299905,0.03252826,0.,-0.15497118,0.13843881,0.
 ,0.16156122,0.00061168,-0.00045362,0.,-0.00401495,0.00513880,0.,0.1391
 2648,-0.29963837,0.,-0.14610289,0.31980709,0.,0.,-0.00076500,0.,0.,0.0
 0397552,0.,0.,-0.05221429,0.,0.,0.03305542,-0.00588400,0.00853226,0.,-
 0.03287047,-0.04981553,0.,-0.24907210,-0.20697405,0.,0.01432009,0.0193
 9117,0.,0.80693650,0.00778015,0.00421094,0.,-0.01853437,-0.00076435,0.
 ,-0.20385840,-0.54022199,0.,-0.02119561,-0.02363333,0.,0.10802829,0.94
 072877,0.,0.,0.00104108,0.,0.,0.00895150,0.,0.,-0.07466373,0.,0.,0.009
 96893,0.,0.,0.15975406,0.00017422,-0.00000999,0.,0.00117515,-0.0011562
 3,0.,0.01524661,-0.01918823,0.,-0.00159543,-0.00325580,0.,-0.15063463,
 0.14181611,0.,0.14896543,0.00025491,-0.00026187,0.,0.00229362,-0.00209
 203,0.,0.02057889,-0.02317017,0.,-0.00341236,-0.00267659,0.,0.13072187
 ,-0.30714913,0.,-0.14662263,0.32580724,0.,0.,0.00058671,0.,0.,-0.00974
 504,0.,0.,0.01075821,0.,0.,0.01352894,0.,0.,-0.05345586,0.,0.,0.031858
 54,-0.00094569,0.00047006,0.,0.00117217,-0.00129342,0.,-0.01094490,0.0
 0460675,0.,0.00129781,-0.00023640,0.,-0.38599652,-0.01326274,0.,-0.010
 38499,-0.00386972,0.,0.40566159,-0.00165248,0.00107881,0.,-0.00110329,
 -0.00701563,0.,-0.03795331,0.00238827,0.,0.00015793,0.00154268,0.,-0.0
 0380062,-0.07105019,0.,0.02848649,0.00585806,0.,0.01472871,0.06638224,
 0.,0.,-0.00074218,0.,0.,0.01534719,0.,0.,0.00975546,0.,0.,-0.00997715,
 0.,0.,-0.05093177,0.,0.,0.00655041,0.,0.,0.03112042,-0.06157907,0.0509
 0941,0.,0.00463816,-0.00984615,0.,-0.00353697,0.00011183,0.,0.00064964
 ,-0.00281038,0.,0.00178949,-0.00079211,0.,-0.00017267,-0.00037228,0.,0
 .00009999,0.00019009,0.,0.05874863,0.04180661,-0.16435256,0.,0.0277700
 6,-0.02960127,0.,0.00211302,0.00047899,0.,-0.00193615,-0.00200189,0.,-
 0.00110153,-0.00037299,0.,0.00021575,0.00027783,0.,-0.00023598,-0.0000
 7788,0.,-0.06641043,0.22102666,0.,0.,-0.02458231,0.,0.,0.00367377,0.,0
 .,-0.00440028,0.,0.,0.00029975,0.,0.,0.00000094,0.,0.,-0.00036109,0.,0
 .,0.00061676,0.,0.,0.01186314,-0.41525183,0.00272770,0.,-0.01266139,0.
 00762900,0.,0.00104153,-0.00177519,0.,0.00027078,0.00006846,0.,-0.0005
 1778,0.00012439,0.,0.00001613,-0.00006369,0.,-0.00001128,-0.00016248,0
 .,-0.00088119,0.00001669,0.,0.42610442,0.01251065,-0.05462940,0.,-0.03
 251942,0.00864654,0.,0.00079302,-0.00498654,0.,-0.00010675,0.00006131,
 0.,-0.00166585,0.00060717,0.,0.00004189,0.00004923,0.,-0.00022066,-0.0
 0041665,0.,0.02966530,-0.01736825,0.,-0.00948682,0.06636241,0.,0.,-0.0
 4444388,0.,0.,0.01290103,0.,0.,0.00993913,0.,0.,-0.00027791,0.,0.,0.00
 013469,0.,0.,0.00080352,0.,0.,-0.00154399,0.,0.,0.00387034,0.,0.,0.027
 26281,0.01148882,-0.01215493,0.,-0.13649655,0.10134159,0.,-0.02583088,
 0.05115698,0.,-0.00720076,-0.00277737,0.,0.00192941,-0.00010570,0.,-0.
 00278982,0.00049139,0.,0.00005183,0.00110894,0.,0.00024398,-0.00223804
 ,0.,0.00189061,0.00098863,0.,0.15671335,0.03264573,-0.05750669,0.,0.10
 104291,-0.27409017,0.,0.00725885,-0.01510289,0.,0.00091731,0.00185392,
 0.,-0.00331600,-0.00235491,0.,-0.00032737,0.00335742,0.,-0.00068659,0.
 00131028,0.,-0.00064528,-0.00800865,0.,0.00092196,0.00167417,0.,-0.137
 81150,0.34886751,0.,0.,0.01197403,0.,0.,-0.04719832,0.,0.,0.00725071,0
 .,0.,0.00240579,0.,0.,-0.00079985,0.,0.,-0.00052434,0.,0.,-0.00019513,
 0.,0.,0.00901898,0.,0.,-0.00864573,0.,0.,0.02671386\\0.00015987,-0.000
 19933,0.,0.00016327,-0.00007092,0.,-0.00010298,0.00026285,0.,0.0000631
 8,-0.00009533,0.,-0.00013117,-0.00039906,0.,-0.00000716,0.00013620,0.,
 -0.00001704,0.00003253,0.,-0.00006207,0.00004453,0.,0.00003325,0.00004
 823,0.,-0.00009914,0.00024031,0.\\\@


 SUCCESS-- IF YOU HAVE TRIED TO DO SOMETHING AND FAILED
           YOU ARE BETTER OFF THAN IF YOU HAD TRIED TO DO
           NOTHING AND SUCCEEDED.

                   -- FROM THE BACK OF A SUGAR PACKET
 Job cpu time:  0 days  0 hours  0 minutes 48.2 seconds.
 File lengths (MBytes):  RWF=     11 Int=      0 D2E=      0 Chk=      1 Scr=      1
 Normal termination of Gaussian 09 at Sat Oct 26 19:11:25 2024.
