 Entering Gaussian System, Link 0=g09
 Initial command:
 /u/local/G09/g09/l1.exe /tmp/marlin/23006.mallos00.local/Gau-23512.inp -scrdir=/tmp/marlin/23006.mallos00.local/
 Entering Link 1 = /u/local/G09/g09/l1.exe PID=     23514.
  
 Copyright (c) 1988,1990,1992,1993,1995,1998,2003,2009, Gaussian, Inc.
                  All Rights Reserved.
  
 This is part of the Gaussian(R) 09 program.  It is based on
 the Gaussian(R) 03 system (copyright 2003, Gaussian, Inc.),
 the Gaussian(R) 98 system (copyright 1998, Gaussian, Inc.),
 the Gaussian(R) 94 system (copyright 1995, Gaussian, Inc.),
 the Gaussian 92(TM) system (copyright 1992, Gaussian, Inc.),
 the Gaussian 90(TM) system (copyright 1990, Gaussian, Inc.),
 the Gaussian 88(TM) system (copyright 1988, Gaussian, Inc.),
 the Gaussian 86(TM) system (copyright 1986, Carnegie Mellon
 University), and the Gaussian 82(TM) system (copyright 1983,
 Carnegie Mellon University). Gaussian is a federally registered
 trademark of Gaussian, Inc.
  
 This software contains proprietary and confidential information,
 including trade secrets, belonging to Gaussian, Inc.
  
 This software is provided under written license and may be
 used, copied, transmitted, or stored only in accord with that
 written license.
  
 The following legend is applicable only to US Government
 contracts under FAR:
  
                    RESTRICTED RIGHTS LEGEND
  
 Use, reproduction and disclosure by the US Government is
 subject to restrictions as set forth in subparagraphs (a)
 and (c) of the Commercial Computer Software - Restricted
 Rights clause in FAR 52.227-19.
  
 Gaussian, Inc.
 340 Quinnipiac St., Bldg. 40, Wallingford CT 06492
  
  
 ---------------------------------------------------------------
 Warning -- This program may not be used in any manner that
 competes with the business of Gaussian, Inc. or will provide
 assistance to any competitor of Gaussian, Inc.  The licensee
 of this program is prohibited from giving any competitor of
 Gaussian, Inc. access to this program.  By using this program,
 the user acknowledges that Gaussian, Inc. is engaged in the
 business of creating and licensing software in the field of
 computational chemistry and represents and warrants to the
 licensee that it is not a competitor of Gaussian, Inc. and that
 it will not use this program in any manner prohibited above.
 ---------------------------------------------------------------
  

 Cite this work as:
 Gaussian 09, Revision A.01,
 M. J. Frisch, G. W. Trucks, H. B. Schlegel, G. E. Scuseria, 
 M. A. Robb, J. R. Cheeseman, G. Scalmani, V. Barone, B. Mennucci, 
 G. A. Petersson, H. Nakatsuji, M. Caricato, X. Li, H. P. Hratchian, 
 A. F. Izmaylov, J. Bloino, G. Zheng, J. L. Sonnenberg, M. Hada, 
 M. Ehara, K. Toyota, R. Fukuda, J. Hasegawa, M. Ishida, T. Nakajima, 
 Y. Honda, O. Kitao, H. Nakai, T. Vreven, J. A. Montgomery, Jr., 
 J. E. Peralta, F. Ogliaro, M. Bearpark, J. J. Heyd, E. Brothers, 
 K. N. Kudin, V. N. Staroverov, R. Kobayashi, J. Normand, 
 K. Raghavachari, A. Rendell, J. C. Burant, S. S. Iyengar, J. Tomasi, 
 M. Cossi, N. Rega, J. M. Millam, M. Klene, J. E. Knox, J. B. Cross, 
 V. Bakken, C. Adamo, J. Jaramillo, R. Gomperts, R. E. Stratmann, 
 O. Yazyev, A. J. Austin, R. Cammi, C. Pomelli, J. W. Ochterski, 
 R. L. Martin, K. Morokuma, V. G. Zakrzewski, G. A. Voth, 
 P. Salvador, J. J. Dannenberg, S. Dapprich, A. D. Daniels, 
 O. Farkas, J. B. Foresman, J. V. Ortiz, J. Cioslowski, 
 and D. J. Fox, Gaussian, Inc., Wallingford CT, 2009.
 
 ******************************************
 Gaussian 09:  EM64L-G09RevA.01  8-May-2009
                26-Oct-2024 
 ******************************************
 %mem=103GB
 %nproc=20
 Will use up to   20 processors via shared memory.
 %chk=3-base5.chk
 -----------------------------------------------
 # opt freq=noraman hf/cc-pvtz geom=connectivity
 -----------------------------------------------
 1/18=20,19=15,38=1,57=2/1,3;
 2/9=110,12=2,17=6,18=5,40=1/2;
 3/5=16,6=1,11=9,16=1,25=1,30=1,71=1/1,2,3;
 4//1;
 5/5=2,38=5/2;
 6/7=2,8=2,9=2,10=2,28=1/1;
 7//1,2,3,16;
 1/18=20,19=15/3(2);
 2/9=110/2;
 99//99;
 2/9=110/2;
 3/5=16,6=1,11=9,16=1,25=1,30=1,71=1/1,2,3;
 4/5=5,16=3/1;
 5/5=2,38=5/2;
 7//1,2,3,16;
 1/18=20,19=15/3(-5);
 2/9=110/2;
 6/7=2,8=2,9=2,10=2,19=2,28=1/1;
 99/9=1/99;
 -------------------
 Title Card Required
 -------------------
 Symbolic Z-matrix:
 Charge =  0 Multiplicity = 1
 C                    -2.1124   -1.70543   0. 
 C                    -1.43713  -0.53045   0. 
 C                     0.10287  -0.53045   0. 
 H                     0.63603  -1.45815   0. 
 C                     0.78511   0.6405    0. 
 H                     0.25747   1.57135   0. 
 H                     1.8551    0.63414   0. 
 Cl                   -3.8724   -1.70543   0. 
 H                    -1.57924  -2.63313   0. 
 F                    -2.10981   0.64002   0. 
 

 GradGradGradGradGradGradGradGradGradGradGradGradGradGradGradGradGradGrad
 Berny optimization.
 Initialization pass.
                           ----------------------------
                           !    Initial Parameters    !
                           ! (Angstroms and Degrees)  !
 --------------------------                            --------------------------
 ! Name  Definition              Value          Derivative Info.                !
 --------------------------------------------------------------------------------
 ! R1    R(1,2)                  1.3552         estimate D2E/DX2                !
 ! R2    R(1,8)                  1.76           estimate D2E/DX2                !
 ! R3    R(1,9)                  1.07           estimate D2E/DX2                !
 ! R4    R(2,3)                  1.54           estimate D2E/DX2                !
 ! R5    R(2,10)                 1.35           estimate D2E/DX2                !
 ! R6    R(3,4)                  1.07           estimate D2E/DX2                !
 ! R7    R(3,5)                  1.3552         estimate D2E/DX2                !
 ! R8    R(5,6)                  1.07           estimate D2E/DX2                !
 ! R9    R(5,7)                  1.07           estimate D2E/DX2                !
 ! A1    A(2,1,8)              119.8865         estimate D2E/DX2                !
 ! A2    A(2,1,9)              120.2269         estimate D2E/DX2                !
 ! A3    A(8,1,9)              119.8865         estimate D2E/DX2                !
 ! A4    A(1,2,3)              119.8865         estimate D2E/DX2                !
 ! A5    A(1,2,10)             120.2269         estimate D2E/DX2                !
 ! A6    A(3,2,10)             119.8865         estimate D2E/DX2                !
 ! A7    A(2,3,4)              119.8865         estimate D2E/DX2                !
 ! A8    A(2,3,5)              120.2269         estimate D2E/DX2                !
 ! A9    A(4,3,5)              119.8865         estimate D2E/DX2                !
 ! A10   A(3,5,6)              120.2269         estimate D2E/DX2                !
 ! A11   A(3,5,7)              119.8865         estimate D2E/DX2                !
 ! A12   A(6,5,7)              119.8865         estimate D2E/DX2                !
 ! D1    D(8,1,2,3)            180.0            estimate D2E/DX2                !
 ! D2    D(8,1,2,10)             0.0            estimate D2E/DX2                !
 ! D3    D(9,1,2,3)              0.0            estimate D2E/DX2                !
 ! D4    D(9,1,2,10)           180.0            estimate D2E/DX2                !
 ! D5    D(1,2,3,4)              0.0            estimate D2E/DX2                !
 ! D6    D(1,2,3,5)            180.0            estimate D2E/DX2                !
 ! D7    D(10,2,3,4)           180.0            estimate D2E/DX2                !
 ! D8    D(10,2,3,5)             0.0            estimate D2E/DX2                !
 ! D9    D(2,3,5,6)              0.0            estimate D2E/DX2                !
 ! D10   D(2,3,5,7)            180.0            estimate D2E/DX2                !
 ! D11   D(4,3,5,6)            180.0            estimate D2E/DX2                !
 ! D12   D(4,3,5,7)              0.0            estimate D2E/DX2                !
 --------------------------------------------------------------------------------
 Trust Radius=3.00D-01 FncErr=1.00D-07 GrdErr=1.00D-07
 Number of steps in this run=  43 maximum allowed number of steps= 100.
 GradGradGradGradGradGradGradGradGradGradGradGradGradGradGradGradGradGrad

                          Input orientation:                          
 ---------------------------------------------------------------------
 Center     Atomic      Atomic             Coordinates (Angstroms)
 Number     Number       Type             X           Y           Z
 ---------------------------------------------------------------------
      1          6           0       -2.112403   -1.705426    0.000000
      2          6           0       -1.437129   -0.530449    0.000000
      3          6           0        0.102871   -0.530449    0.000000
      4          1           0        0.636035   -1.458154    0.000000
      5          6           0        0.785114    0.640495    0.000000
      6          1           0        0.257472    1.571352    0.000000
      7          1           0        1.855096    0.634138    0.000000
      8         17           0       -3.872403   -1.705426    0.000000
      9          1           0       -1.579240   -2.633131    0.000000
     10          9           0       -2.109812    0.640020    0.000000
 ---------------------------------------------------------------------
                    Distance matrix (angstroms):
                    1          2          3          4          5
     1  C    0.000000
     2  C    1.355200   0.000000
     3  C    2.507591   1.540000   0.000000
     4  H    2.759539   2.271265   1.070000   0.000000
     5  C    3.728131   2.511867   1.355200   2.103938   0.000000
     6  H    4.043956   2.699859   2.107479   3.053066   1.070000
     7  H    4.605932   3.492135   2.103938   2.421527   1.070000
     8  Cl   1.760000   2.703911   4.145284   4.515214   5.214961
     9  H    1.070000   2.107479   2.692725   2.507591   4.038168
    10  F    2.345448   1.350000   2.503191   3.455721   2.894927
                    6          7          8          9         10
     6  H    0.000000
     7  H    1.852234   0.000000
     8  Cl   5.271920   6.186906   0.000000
     9  H    4.588157   4.740222   2.473709   0.000000
    10  F    2.543897   3.964912   2.933913   3.315875   0.000000
 Stoichiometry    C4H4ClF
 Framework group  CS[SG(C4H4ClF)]
 Deg. of freedom    17
 Full point group                 CS      NOp   2
 Largest Abelian subgroup         CS      NOp   2
 Largest concise Abelian subgroup C1      NOp   1
                         Standard orientation:                         
 ---------------------------------------------------------------------
 Center     Atomic      Atomic             Coordinates (Angstroms)
 Number     Number       Type             X           Y           Z
 ---------------------------------------------------------------------
      1          6           0        1.004077   -0.267605    0.000000
      2          6           0       -0.170900    0.407669    0.000000
      3          6           0       -0.170900    1.947669    0.000000
      4          1           0        0.756805    2.480833    0.000000
      5          6           0       -1.341844    2.629912    0.000000
      6          1           0       -2.272701    2.102270    0.000000
      7          1           0       -1.335487    3.699893    0.000000
      8         17           0        1.004077   -2.027605    0.000000
      9          1           0        1.931782    0.265558    0.000000
     10          9           0       -1.341369   -0.265014    0.000000
 ---------------------------------------------------------------------
 Rotational constants (GHZ):      9.2917918      1.4010922      1.2175066
 Standard basis: CC-pVTZ (5D, 7F)
 There are   163 symmetry adapted basis functions of A'  symmetry.
 There are    77 symmetry adapted basis functions of A"  symmetry.
 Integral buffers will be    131072 words long.
 Raffenetti 1 integral format.
 Two-electron integral symmetry is turned on.
   240 basis functions,   422 primitive gaussians,   274 cartesian basis functions
    27 alpha electrons       27 beta electrons
       nuclear repulsion energy       258.7779846651 Hartrees.
 NAtoms=   10 NActive=   10 NUniq=   10 SFac= 7.50D-01 NAtFMM=   80 NAOKFM=F Big=F
 One-electron integrals computed using PRISM.
 NBasis=   240 RedAO= T  NBF=   163    77
 NBsUse=   240 1.00D-06 NBFU=   163    77
 Harris functional with IExCor=  205 diagonalized for initial guess.
 ExpMin= 1.03D-01 ExpMax= 4.56D+05 ExpMxC= 1.44D+03 IAcc=2 IRadAn=         0 AccDes= 0.00D+00
 HarFok:  IExCor=  205 AccDes= 0.00D+00 IRadAn=         0 IDoV= 1
 ScaDFX=  1.000000  1.000000  1.000000  1.000000
 FoFCou: FMM=F IPFlag=           0 FMFlag=      100000 FMFlg1=           0
         NFxFlg=           0 DoJE=T BraDBF=F KetDBF=T FulRan=T
         Omega=  0.000000  0.000000  1.000000  0.000000  0.000000 ICntrl=     500 IOpCl=  0
         NMat0=    1 NMatS0=    1 NMatT0=    0 NMatD0=    1 NMtDS0=    0 NMtDT0=    0
         I1Cent=           4 NGrid=           0.
 Petite list used in FoFCou.
 Initial guess orbital symmetries:
       Occupied  (A') (A') (A') (A') (A') (A') (A') (A') (A') (A")
                 (A') (A') (A') (A') (A') (A') (A') (A') (A') (A")
                 (A') (A') (A') (A") (A") (A') (A")
       Virtual   (A") (A') (A") (A') (A') (A') (A') (A') (A') (A')
                 (A') (A') (A") (A') (A') (A") (A') (A") (A') (A')
                 (A") (A') (A") (A') (A") (A') (A') (A") (A') (A')
                 (A') (A') (A") (A') (A') (A") (A') (A') (A") (A')
                 (A') (A") (A') (A') (A") (A') (A') (A') (A") (A')
                 (A") (A") (A") (A') (A') (A') (A') (A") (A') (A')
                 (A") (A') (A") (A') (A') (A') (A') (A") (A') (A')
                 (A') (A') (A') (A') (A') (A") (A') (A") (A") (A')
                 (A") (A') (A') (A') (A") (A") (A') (A') (A") (A')
                 (A") (A') (A") (A") (A') (A") (A') (A') (A') (A')
                 (A') (A") (A') (A") (A') (A') (A") (A') (A') (A")
                 (A') (A") (A') (A') (A") (A') (A") (A') (A') (A")
                 (A') (A") (A') (A") (A') (A') (A") (A") (A') (A')
                 (A') (A") (A') (A') (A") (A") (A") (A') (A") (A')
                 (A') (A') (A") (A') (A') (A') (A") (A') (A') (A")
                 (A') (A') (A") (A') (A") (A') (A") (A') (A") (A')
                 (A') (A") (A') (A") (A') (A') (A') (A") (A') (A')
                 (A") (A") (A') (A') (A') (A') (A") (A") (A') (A")
                 (A') (A") (A') (A') (A') (A") (A') (A') (A') (A')
                 (A') (A') (A') (A') (A') (A') (A") (A') (A") (A')
                 (A") (A') (A') (A") (A') (A') (A") (A') (A') (A')
                 (A') (A') (A')
 The electronic state of the initial guess is 1-A'.
 Requested convergence on RMS density matrix=1.00D-08 within 128 cycles.
 Requested convergence on MAX density matrix=1.00D-06.
 Requested convergence on             energy=1.00D-06.
 No special actions if energy rises.
 Keep R1 ints in memory in canonical form, NReq=720370894.
 SCF Done:  E(RHF) =  -712.789228394     A.U. after   13 cycles
             Convg  =    0.5677D-08             -V/T =  2.0009

 **********************************************************************

            Population analysis using the SCF density.

 **********************************************************************

 Orbital symmetries:
       Occupied  (A') (A') (A') (A') (A') (A') (A') (A') (A") (A')
                 (A') (A') (A') (A') (A') (A') (A') (A") (A') (A')
                 (A') (A') (A') (A") (A') (A") (A")
       Virtual   (A") (A') (A') (A') (A') (A") (A') (A') (A') (A')
                 (A') (A") (A') (A') (A') (A") (A') (A') (A") (A")
                 (A') (A') (A") (A') (A') (A') (A") (A') (A') (A")
                 (A') (A') (A") (A') (A') (A') (A") (A') (A") (A')
                 (A') (A") (A') (A') (A') (A") (A') (A') (A") (A')
                 (A") (A") (A") (A') (A') (A') (A') (A") (A') (A')
                 (A") (A') (A") (A') (A') (A') (A') (A") (A') (A')
                 (A') (A') (A') (A') (A') (A') (A") (A") (A') (A")
                 (A") (A') (A') (A') (A') (A") (A') (A") (A") (A')
                 (A") (A') (A') (A") (A") (A') (A") (A') (A') (A')
                 (A') (A") (A') (A") (A') (A') (A") (A') (A') (A")
                 (A') (A") (A') (A') (A") (A') (A") (A') (A') (A")
                 (A") (A') (A") (A') (A') (A") (A') (A") (A') (A')
                 (A') (A") (A') (A') (A") (A") (A") (A') (A") (A')
                 (A') (A") (A') (A') (A') (A') (A") (A") (A') (A')
                 (A') (A') (A") (A') (A") (A') (A") (A") (A') (A')
                 (A") (A') (A') (A") (A') (A') (A") (A') (A') (A")
                 (A') (A") (A') (A') (A') (A") (A') (A') (A") (A")
                 (A') (A") (A') (A") (A') (A') (A') (A') (A') (A')
                 (A') (A') (A') (A') (A') (A') (A") (A') (A") (A')
                 (A") (A') (A') (A") (A') (A') (A") (A') (A') (A')
                 (A') (A') (A')
 The electronic state is 1-A'.
 Alpha  occ. eigenvalues -- -104.84402 -26.32729 -11.36136 -11.30553 -11.27542
 Alpha  occ. eigenvalues --  -11.25266 -10.56799  -8.03486  -8.03293  -8.03293
 Alpha  occ. eigenvalues --   -1.64039  -1.15394  -1.08504  -1.00175  -0.83646
 Alpha  occ. eigenvalues --   -0.80999  -0.73863  -0.70653  -0.68298  -0.63805
 Alpha  occ. eigenvalues --   -0.60865  -0.57104  -0.53256  -0.50891  -0.45678
 Alpha  occ. eigenvalues --   -0.43485  -0.33730
 Alpha virt. eigenvalues --    0.09312   0.13737   0.16060   0.19374   0.19615
 Alpha virt. eigenvalues --    0.19918   0.21909   0.29857   0.32558   0.34649
 Alpha virt. eigenvalues --    0.38909   0.41546   0.43358   0.44536   0.46482
 Alpha virt. eigenvalues --    0.46883   0.48967   0.49881   0.50604   0.52639
 Alpha virt. eigenvalues --    0.54239   0.55131   0.56395   0.57978   0.60548
 Alpha virt. eigenvalues --    0.62336   0.63134   0.64490   0.65619   0.66522
 Alpha virt. eigenvalues --    0.68067   0.70970   0.73100   0.76342   0.80090
 Alpha virt. eigenvalues --    0.81559   0.82009   0.86939   0.87862   0.88509
 Alpha virt. eigenvalues --    0.92367   0.93612   0.94980   0.98086   1.04019
 Alpha virt. eigenvalues --    1.04699   1.05938   1.08150   1.12094   1.14745
 Alpha virt. eigenvalues --    1.16890   1.19922   1.21411   1.23911   1.24631
 Alpha virt. eigenvalues --    1.29610   1.35288   1.36739   1.37121   1.39691
 Alpha virt. eigenvalues --    1.42750   1.44190   1.48067   1.50050   1.53802
 Alpha virt. eigenvalues --    1.59104   1.61119   1.63551   1.68919   1.70489
 Alpha virt. eigenvalues --    1.73813   1.78704   1.90377   1.94694   2.02442
 Alpha virt. eigenvalues --    2.17205   2.20593   2.24711   2.24907   2.26060
 Alpha virt. eigenvalues --    2.28564   2.29891   2.32183   2.33765   2.38188
 Alpha virt. eigenvalues --    2.38285   2.40195   2.40617   2.42012   2.42823
 Alpha virt. eigenvalues --    2.47113   2.52409   2.54462   2.55290   2.56960
 Alpha virt. eigenvalues --    2.57606   2.58988   2.61704   2.62519   2.66522
 Alpha virt. eigenvalues --    2.70444   2.71705   2.78390   2.79123   2.79195
 Alpha virt. eigenvalues --    2.81665   2.82245   2.85508   2.95348   2.96672
 Alpha virt. eigenvalues --    2.99754   3.02759   3.05780   3.06917   3.09498
 Alpha virt. eigenvalues --    3.12313   3.16496   3.19422   3.20765   3.21974
 Alpha virt. eigenvalues --    3.26455   3.27809   3.29976   3.30212   3.34275
 Alpha virt. eigenvalues --    3.35568   3.37237   3.40960   3.41819   3.44942
 Alpha virt. eigenvalues --    3.48145   3.48433   3.50192   3.53353   3.54281
 Alpha virt. eigenvalues --    3.57704   3.59397   3.60987   3.63457   3.68377
 Alpha virt. eigenvalues --    3.69460   3.73746   3.76182   3.80654   3.83652
 Alpha virt. eigenvalues --    3.87639   3.90129   3.95187   3.95853   3.98867
 Alpha virt. eigenvalues --    4.03928   4.10269   4.11315   4.13943   4.15123
 Alpha virt. eigenvalues --    4.17588   4.21246   4.22386   4.27796   4.31197
 Alpha virt. eigenvalues --    4.35244   4.35741   4.37213   4.40327   4.46121
 Alpha virt. eigenvalues --    4.53131   4.56803   4.58900   4.67306   4.71982
 Alpha virt. eigenvalues --    4.72831   4.79182   4.81190   4.93222   4.99685
 Alpha virt. eigenvalues --    5.04607   5.11854   5.19277   5.21190   5.30733
 Alpha virt. eigenvalues --    5.32012   5.34174   5.40287   5.45894   5.46100
 Alpha virt. eigenvalues --    5.53852   5.55885   5.61574   5.77648   5.81841
 Alpha virt. eigenvalues --    5.89422   6.01759   6.27989   6.28184   6.56802
 Alpha virt. eigenvalues --    6.65010   7.37800   7.38687   7.48566   7.53842
 Alpha virt. eigenvalues --    7.74675   7.86667   8.08046   8.92881   8.98614
 Alpha virt. eigenvalues --    9.18331   9.35864   9.55762  10.11768  11.70053
 Alpha virt. eigenvalues --   12.30656  13.33250  14.63653
          Condensed to atoms (all electrons):
              1          2          3          4          5          6
     1  C    5.045551   0.576878  -0.076072   0.000403   0.003255   0.000486
     2  C    0.576878   4.562356   0.410694  -0.018775  -0.067484  -0.004930
     3  C   -0.076072   0.410694   4.988896   0.407576   0.602665  -0.045441
     4  H    0.000403  -0.018775   0.407576   0.464722  -0.038443   0.003509
     5  C    0.003255  -0.067484   0.602665  -0.038443   4.953261   0.421707
     6  H    0.000486  -0.004930  -0.045441   0.003509   0.421707   0.477165
     7  H   -0.000161   0.004647  -0.051013  -0.004154   0.427845  -0.026547
     8  Cl   0.271760  -0.069715   0.001612   0.000003  -0.000386  -0.000039
     9  H    0.417351  -0.046573   0.002383   0.002500  -0.000007  -0.000056
    10  F   -0.057705   0.322326  -0.042650   0.001479   0.006145   0.005411
              7          8          9         10
     1  C   -0.000161   0.271760   0.417351  -0.057705
     2  C    0.004647  -0.069715  -0.046573   0.322326
     3  C   -0.051013   0.001612   0.002383  -0.042650
     4  H   -0.004154   0.000003   0.002500   0.001479
     5  C    0.427845  -0.000386  -0.000007   0.006145
     6  H   -0.026547  -0.000039  -0.000056   0.005411
     7  H    0.492364   0.000005  -0.000027   0.000127
     8  Cl   0.000005  16.948547  -0.024038  -0.000091
     9  H   -0.000027  -0.024038   0.452726   0.002280
    10  F    0.000127  -0.000091   0.002280   8.976935
 Mulliken atomic charges:
              1
     1  C   -0.181747
     2  C    0.330578
     3  C   -0.198651
     4  H    0.181182
     5  C   -0.308557
     6  H    0.168735
     7  H    0.156916
     8  Cl  -0.127658
     9  H    0.193461
    10  F   -0.214259
 Sum of Mulliken atomic charges =   0.00000
 Mulliken charges with hydrogens summed into heavy atoms:
              1
     1  C    0.011714
     2  C    0.330578
     3  C   -0.017469
     5  C    0.017095
     8  Cl  -0.127658
    10  F   -0.214259
 Sum of Mulliken charges with hydrogens summed into heavy atoms =   0.00000
 Electronic spatial extent (au):  <R**2>=            884.9396
 Charge=              0.0000 electrons
 Dipole moment (field-independent basis, Debye):
    X=              0.7322    Y=              2.9378    Z=              0.0000  Tot=              3.0277
 Quadrupole moment (field-independent basis, Debye-Ang):
   XX=            -39.3712   YY=            -38.5028   ZZ=            -44.5019
   XY=              0.3915   XZ=              0.0000   YZ=              0.0000
 Traceless Quadrupole moment (field-independent basis, Debye-Ang):
   XX=              1.4208   YY=              2.2892   ZZ=             -3.7100
   XY=              0.3915   XZ=              0.0000   YZ=              0.0000
 Octapole moment (field-independent basis, Debye-Ang**2):
  XXX=             -5.4863  YYY=              4.8862  ZZZ=              0.0000  XYY=             -7.0659
  XXY=              5.0711  XXZ=              0.0000  XZZ=             -1.9989  YZZ=             -7.8777
  YYZ=              0.0000  XYZ=              0.0000
 Hexadecapole moment (field-independent basis, Debye-Ang**3):
 XXXX=           -289.2132 YYYY=           -715.3876 ZZZZ=            -48.9379 XXXY=            152.5353
 XXXZ=              0.0000 YYYX=            140.9866 YYYZ=              0.0000 ZZZX=              0.0000
 ZZZY=              0.0000 XXYY=           -176.0869 XXZZ=            -62.2790 YYZZ=           -155.8952
 XXYZ=              0.0000 YYXZ=              0.0000 ZZXY=             56.1372
 N-N= 2.587779846651D+02 E-N=-2.207726825532D+03  KE= 7.121501329249D+02
 Symmetry A'   KE= 6.559851536667D+02
 Symmetry A"   KE= 5.616497925825D+01
 Calling FoFJK, ICntrl=      2127 FMM=F ISym2X=1 I1Cent= 0 IOpClX= 0 NMat=1 NMatS=1 NMatT=0.
 ***** Axes restored to original set *****
 -------------------------------------------------------------------
 Center     Atomic                   Forces (Hartrees/Bohr)
 Number     Number              X              Y              Z
 -------------------------------------------------------------------
      1        6           0.004692276    0.054926160    0.000000000
      2        6           0.002445321   -0.037428529    0.000000000
      3        6          -0.021236198    0.064400905    0.000000000
      4        1          -0.007634277   -0.004689921    0.000000000
      5        6          -0.024565432   -0.043528369    0.000000000
      6        1           0.002086005    0.002570387    0.000000000
      7        1           0.001465436    0.002483689    0.000000000
      8       17           0.019561675   -0.007301271    0.000000000
      9        1          -0.007229610   -0.000715048    0.000000000
     10        9           0.030414804   -0.030718004    0.000000000
 -------------------------------------------------------------------
 Cartesian Forces:  Max     0.064400905 RMS     0.021601976

 GradGradGradGradGradGradGradGradGradGradGradGradGradGradGradGradGradGrad
 Berny optimization.
 Internal  Forces:  Max     0.049884465 RMS     0.017745291
 Search for a local minimum.
 Step number   1 out of a maximum of   43
 All quantities printed in internal units (Hartrees-Bohrs-Radians)
 Mixed Optimization -- RFO/linear search
 Second derivative matrix not updated -- first step.
     Eigenvalues ---    0.00237   0.01459   0.01463   0.02681   0.02681
     Eigenvalues ---    0.02681   0.02681   0.16000   0.16000   0.16000
     Eigenvalues ---    0.16000   0.22000   0.22000   0.25000   0.25000
     Eigenvalues ---    0.28519   0.29539   0.37230   0.37230   0.37230
     Eigenvalues ---    0.37230   0.53930   0.53930   0.550211000.00000
     Eigenvalues --- 1000.000001000.000001000.000001000.000001000.00000
     Eigenvalues --- 1000.000001000.000001000.00000
 RFO step:  Lambda=-2.57302220D-02 EMin= 2.36824121D-03
 Linear search not attempted -- first point.
 Iteration  1 RMS(Cart)=  0.06605026 RMS(Int)=  0.00122058
 Iteration  2 RMS(Cart)=  0.00180781 RMS(Int)=  0.00000109
 Iteration  3 RMS(Cart)=  0.00000165 RMS(Int)=  0.00000000
 Iteration  4 RMS(Cart)=  0.00000000 RMS(Int)=  0.00000000
 ClnCor:  largest displacement from symmetrization is 4.48D-16 for atom     6.
 Variable       Old X    -DE/DX   Delta X   Delta X   Delta X     New X
                                 (Linear)    (Quad)   (Total)
    R1        2.56096  -0.04915   0.00000  -0.08699  -0.08699   2.47396
    R2        3.32592  -0.01956   0.00000  -0.06092  -0.06092   3.26500
    R3        2.02201  -0.00298   0.00000  -0.00749  -0.00749   2.01451
    R4        2.91018  -0.04988   0.00000  -0.16044  -0.16044   2.74974
    R5        2.55113  -0.04179   0.00000  -0.07256  -0.07256   2.47857
    R6        2.02201   0.00026   0.00000   0.00066   0.00066   2.02267
    R7        2.56096  -0.04382   0.00000  -0.07756  -0.07756   2.48340
    R8        2.02201   0.00121   0.00000   0.00303   0.00303   2.02504
    R9        2.02201   0.00145   0.00000   0.00364   0.00364   2.02565
    A1        2.09241   0.01172   0.00000   0.04771   0.04771   2.14013
    A2        2.09836   0.00084   0.00000   0.01220   0.01220   2.11056
    A3        2.09241  -0.01256   0.00000  -0.05992  -0.05992   2.03250
    A4        2.09241   0.01686   0.00000   0.06113   0.06113   2.15355
    A5        2.09836   0.00568   0.00000   0.02062   0.02062   2.11897
    A6        2.09241  -0.02254   0.00000  -0.08175  -0.08175   2.01067
    A7        2.09241  -0.01350   0.00000  -0.06686  -0.06686   2.02555
    A8        2.09836   0.00890   0.00000   0.03622   0.03622   2.13458
    A9        2.09241   0.00460   0.00000   0.03064   0.03064   2.12305
   A10        2.09836   0.00248   0.00000   0.01333   0.01333   2.11168
   A11        2.09241   0.00128   0.00000   0.00690   0.00690   2.09932
   A12        2.09241  -0.00376   0.00000  -0.02023  -0.02023   2.07218
    D1        3.14159   0.00000   0.00000   0.00000   0.00000   3.14159
    D2        0.00000   0.00000   0.00000   0.00000   0.00000   0.00000
    D3        0.00000   0.00000   0.00000   0.00000   0.00000   0.00000
    D4        3.14159   0.00000   0.00000   0.00000   0.00000   3.14159
    D5        0.00000   0.00000   0.00000   0.00000   0.00000   0.00000
    D6        3.14159   0.00000   0.00000   0.00000   0.00000   3.14159
    D7        3.14159   0.00000   0.00000   0.00000   0.00000   3.14159
    D8        0.00000   0.00000   0.00000   0.00000   0.00000   0.00000
    D9        0.00000   0.00000   0.00000   0.00000   0.00000   0.00000
   D10        3.14159   0.00000   0.00000   0.00000   0.00000   3.14159
   D11        3.14159   0.00000   0.00000   0.00000   0.00000   3.14159
   D12        0.00000   0.00000   0.00000   0.00000   0.00000   0.00000
         Item               Value     Threshold  Converged?
 Maximum Force            0.049884     0.000450     NO 
 RMS     Force            0.017745     0.000300     NO 
 Maximum Displacement     0.232716     0.001800     NO 
 RMS     Displacement     0.066778     0.001200     NO 
 Predicted change in Energy=-1.379906D-02
 GradGradGradGradGradGradGradGradGradGradGradGradGradGradGradGradGradGrad

                          Input orientation:                          
 ---------------------------------------------------------------------
 Center     Atomic      Atomic             Coordinates (Angstroms)
 Number     Number       Type             X           Y           Z
 ---------------------------------------------------------------------
      1          6           0       -2.078579   -1.668212    0.000000
      2          6           0       -1.391999   -0.553528    0.000000
      3          6           0        0.062413   -0.508874    0.000000
      4          1           0        0.561844   -1.455561    0.000000
      5          6           0        0.730264    0.622933    0.000000
      6          1           0        0.219501    1.564984    0.000000
      7          1           0        1.802181    0.618037    0.000000
      8         17           0       -3.806085   -1.698050    0.000000
      9          1           0       -1.587276   -2.614284    0.000000
     10          9           0       -1.986664    0.615524    0.000000
 ---------------------------------------------------------------------
                    Distance matrix (angstroms):
                    1          2          3          4          5
     1  C    0.000000
     2  C    1.309164   0.000000
     3  C    2.434730   1.455098   0.000000
     4  H    2.648972   2.152014   1.070349   0.000000
     5  C    3.624768   2.426533   1.314158   2.085306   0.000000
     6  H    3.966702   2.661771   2.079799   3.039882   1.071605
     7  H    4.504135   3.402257   2.072854   2.416246   1.071929
     8  Cl   1.727764   2.671655   4.047150   4.374655   5.095628
     9  H    1.066035   2.069987   2.674738   2.441589   3.981277
    10  F    2.285584   1.311605   2.337304   3.283943   2.716938
                    6          7          8          9         10
     6  H    0.000000
     7  H    1.844338   0.000000
     8  Cl   5.181963   6.067694   0.000000
     9  H    4.553100   4.683622   2.400541   0.000000
    10  F    2.401799   3.788847   2.943283   3.254407   0.000000
 Stoichiometry    C4H4ClF
 Framework group  CS[SG(C4H4ClF)]
 Deg. of freedom    17
 Full point group                 CS      NOp   2
 Largest Abelian subgroup         CS      NOp   2
 Largest concise Abelian subgroup C1      NOp   1
                         Standard orientation:                         
 ---------------------------------------------------------------------
 Center     Atomic      Atomic             Coordinates (Angstroms)
 Number     Number       Type             X           Y           Z
 ---------------------------------------------------------------------
      1          6           0       -0.821296   -0.577704    0.000000
      2          6           0        0.000000    0.441798    0.000000
      3          6           0       -0.443763    1.827578    0.000000
      4          1           0       -1.502903    1.982074    0.000000
      5          6           0        0.399928    2.835147    0.000000
      6          1           0        1.458484    2.668421    0.000000
      7          1           0        0.037236    3.843852    0.000000
      8         17           0       -0.272341   -2.215940    0.000000
      9          1           0       -1.877141   -0.430663    0.000000
     10          9           0        1.300544    0.271820    0.000000
 ---------------------------------------------------------------------
 Rotational constants (GHZ):     10.1812669      1.4578876      1.2752767
 Standard basis: CC-pVTZ (5D, 7F)
 There are   163 symmetry adapted basis functions of A'  symmetry.
 There are    77 symmetry adapted basis functions of A"  symmetry.
 Integral buffers will be    131072 words long.
 Raffenetti 1 integral format.
 Two-electron integral symmetry is turned on.
   240 basis functions,   422 primitive gaussians,   274 cartesian basis functions
    27 alpha electrons       27 beta electrons
       nuclear repulsion energy       265.5612788374 Hartrees.
 NAtoms=   10 NActive=   10 NUniq=   10 SFac= 7.50D-01 NAtFMM=   80 NAOKFM=F Big=F
 One-electron integrals computed using PRISM.
 NBasis=   240 RedAO= T  NBF=   163    77
 NBsUse=   240 1.00D-06 NBFU=   163    77
 Initial guess read from the read-write file.
 B after Tr=     0.000000    0.000000    0.000000
         Rot=    1.000000    0.000000    0.000000    0.000000 Ang=   0.00 deg.
 Initial guess orbital symmetries:
       Occupied  (A') (A') (A') (A') (A') (A') (A') (A') (A") (A')
                 (A') (A') (A') (A') (A') (A') (A') (A") (A') (A')
                 (A') (A') (A') (A") (A') (A") (A")
       Virtual   (A") (A') (A') (A') (A') (A") (A') (A') (A') (A')
                 (A') (A") (A') (A') (A') (A") (A') (A') (A") (A")
                 (A') (A') (A") (A') (A') (A') (A") (A') (A') (A")
                 (A') (A') (A") (A') (A') (A') (A") (A') (A") (A')
                 (A') (A") (A') (A') (A') (A") (A') (A') (A") (A')
                 (A") (A") (A") (A') (A') (A') (A') (A") (A') (A')
                 (A") (A') (A") (A') (A') (A') (A') (A") (A') (A')
                 (A') (A') (A') (A') (A') (A') (A") (A") (A') (A")
                 (A") (A') (A') (A') (A') (A") (A') (A") (A") (A')
                 (A") (A') (A') (A") (A") (A') (A") (A') (A') (A')
                 (A') (A") (A') (A") (A') (A') (A") (A') (A') (A")
                 (A') (A") (A') (A') (A") (A') (A") (A') (A') (A")
                 (A") (A') (A") (A') (A') (A") (A') (A") (A') (A')
                 (A') (A") (A') (A') (A") (A") (A") (A') (A") (A')
                 (A') (A") (A') (A') (A') (A') (A") (A") (A') (A')
                 (A') (A') (A") (A') (A") (A') (A") (A") (A') (A')
                 (A") (A') (A') (A") (A') (A') (A") (A') (A') (A")
                 (A') (A") (A') (A') (A') (A") (A') (A') (A") (A")
                 (A') (A") (A') (A") (A') (A') (A') (A') (A') (A')
                 (A') (A') (A') (A') (A') (A') (A") (A') (A") (A')
                 (A") (A') (A') (A") (A') (A') (A") (A') (A') (A')
                 (A') (A') (A')
 Harris functional with IExCor=  205 diagonalized for initial guess.
 ExpMin= 1.03D-01 ExpMax= 4.56D+05 ExpMxC= 1.44D+03 IAcc=2 IRadAn=         0 AccDes= 0.00D+00
 HarFok:  IExCor=  205 AccDes= 0.00D+00 IRadAn=         0 IDoV= 1
 ScaDFX=  1.000000  1.000000  1.000000  1.000000
 FoFCou: FMM=F IPFlag=           0 FMFlag=      100000 FMFlg1=           0
         NFxFlg=           0 DoJE=T BraDBF=F KetDBF=T FulRan=T
         Omega=  0.000000  0.000000  1.000000  0.000000  0.000000 ICntrl=     500 IOpCl=  0
         NMat0=    1 NMatS0=    1 NMatT0=    0 NMatD0=    1 NMtDS0=    0 NMtDT0=    0
         I1Cent=           4 NGrid=           0.
 Petite list used in FoFCou.
 Requested convergence on RMS density matrix=1.00D-08 within 128 cycles.
 Requested convergence on MAX density matrix=1.00D-06.
 Requested convergence on             energy=1.00D-06.
 No special actions if energy rises.
 Keep R1 ints in memory in canonical form, NReq=720370894.
 SCF Done:  E(RHF) =  -712.802148598     A.U. after   14 cycles
             Convg  =    0.4011D-08             -V/T =  2.0000
 Calling FoFJK, ICntrl=      2127 FMM=F ISym2X=1 I1Cent= 0 IOpClX= 0 NMat=1 NMatS=1 NMatT=0.
 ***** Axes restored to original set *****
 -------------------------------------------------------------------
 Center     Atomic                   Forces (Hartrees/Bohr)
 Number     Number              X              Y              Z
 -------------------------------------------------------------------
      1        6          -0.009094740   -0.001965849    0.000000000
      2        6           0.003099084    0.000287367    0.000000000
      3        6          -0.000949500    0.002393997    0.000000000
      4        1           0.001056831   -0.001476114    0.000000000
      5        6           0.003834741    0.000259240    0.000000000
      6        1           0.002142058    0.001004835    0.000000000
      7        1           0.000320516    0.002102449    0.000000000
      8       17           0.002879184   -0.002264356    0.000000000
      9        1          -0.001399643   -0.001386651    0.000000000
     10        9          -0.001888532    0.001045082    0.000000000
 -------------------------------------------------------------------
 Cartesian Forces:  Max     0.009094740 RMS     0.002258653

 GradGradGradGradGradGradGradGradGradGradGradGradGradGradGradGradGradGrad
 Berny optimization.
 Using GEDIIS/GDIIS optimizer.
 Internal  Forces:  Max     0.008776176 RMS     0.002948950
 Search for a local minimum.
 Step number   2 out of a maximum of   43
 All quantities printed in internal units (Hartrees-Bohrs-Radians)
 Mixed Optimization -- RFO/linear search
 Update second derivatives using D2CorX and points    1    2
 DE= -1.29D-02 DEPred=-1.38D-02 R= 9.36D-01
 SS=  1.41D+00  RLast= 2.69D-01 DXNew= 5.0454D-01 8.0830D-01
 Trust test= 9.36D-01 RLast= 2.69D-01 DXMaxT set to 5.05D-01
 Use linear search instead of GDIIS.
     Eigenvalues ---    0.00237   0.01525   0.01530   0.02681   0.02681
     Eigenvalues ---    0.02681   0.02681   0.15663   0.16000   0.16000
     Eigenvalues ---    0.16130   0.20898   0.22025   0.24796   0.25226
     Eigenvalues ---    0.29276   0.31171   0.37215   0.37230   0.37230
     Eigenvalues ---    0.37269   0.53905   0.54637   0.605931000.00000
     Eigenvalues --- 1000.000001000.000001000.000001000.000001000.00000
     Eigenvalues --- 1000.000001000.000001000.00000
 RFO step:  Lambda=-8.21633645D-04 EMin= 2.36824121D-03
 Quartic linear search produced a step of -0.04341.
 Iteration  1 RMS(Cart)=  0.02680187 RMS(Int)=  0.00019666
 Iteration  2 RMS(Cart)=  0.00022503 RMS(Int)=  0.00000000
 Iteration  3 RMS(Cart)=  0.00000001 RMS(Int)=  0.00000000
 ClnCor:  largest displacement from symmetrization is 3.30D-11 for atom     8.
 Variable       Old X    -DE/DX   Delta X   Delta X   Delta X     New X
                                 (Linear)    (Quad)   (Total)
    R1        2.47396   0.00878   0.00378   0.00869   0.01246   2.48643
    R2        3.26500  -0.00284   0.00264  -0.01431  -0.01166   3.25334
    R3        2.01451   0.00059   0.00033   0.00089   0.00121   2.01573
    R4        2.74974   0.00653   0.00697   0.00824   0.01521   2.76494
    R5        2.47857   0.00179   0.00315  -0.00260   0.00055   2.47912
    R6        2.02267   0.00180  -0.00003   0.00466   0.00464   2.02730
    R7        2.48340   0.00610   0.00337   0.00469   0.00806   2.49146
    R8        2.02504  -0.00014  -0.00013  -0.00010  -0.00024   2.02480
    R9        2.02565   0.00031  -0.00016   0.00110   0.00094   2.02659
    A1        2.14013   0.00377  -0.00207   0.02057   0.01850   2.15862
    A2        2.11056   0.00001  -0.00053   0.00440   0.00387   2.11443
    A3        2.03250  -0.00378   0.00260  -0.02497  -0.02237   2.01013
    A4        2.15355   0.00233  -0.00265   0.01417   0.01151   2.16506
    A5        2.11897  -0.00266  -0.00090  -0.00837  -0.00926   2.10971
    A6        2.01067   0.00034   0.00355  -0.00580  -0.00225   2.00842
    A7        2.02555  -0.00292   0.00290  -0.01845  -0.01555   2.01001
    A8        2.13458   0.00633  -0.00157   0.03062   0.02905   2.16362
    A9        2.12305  -0.00341  -0.00133  -0.01217  -0.01350   2.10955
   A10        2.11168   0.00177  -0.00058   0.01178   0.01120   2.12288
   A11        2.09932   0.00125  -0.00030   0.00807   0.00777   2.10709
   A12        2.07218  -0.00301   0.00088  -0.01985  -0.01897   2.05322
    D1        3.14159   0.00000   0.00000   0.00000   0.00000   3.14159
    D2        0.00000   0.00000   0.00000   0.00000   0.00000   0.00000
    D3        0.00000   0.00000   0.00000   0.00000   0.00000   0.00000
    D4        3.14159   0.00000   0.00000   0.00000   0.00000   3.14159
    D5        0.00000   0.00000   0.00000   0.00000   0.00000   0.00000
    D6        3.14159   0.00000   0.00000   0.00000   0.00000   3.14159
    D7        3.14159   0.00000   0.00000   0.00000   0.00000   3.14159
    D8        0.00000   0.00000   0.00000   0.00000   0.00000   0.00000
    D9        0.00000   0.00000   0.00000   0.00000   0.00000   0.00000
   D10        3.14159   0.00000   0.00000   0.00000   0.00000   3.14159
   D11        3.14159   0.00000   0.00000   0.00000   0.00000   3.14159
   D12        0.00000   0.00000   0.00000   0.00000   0.00000   0.00000
         Item               Value     Threshold  Converged?
 Maximum Force            0.008776     0.000450     NO 
 RMS     Force            0.002949     0.000300     NO 
 Maximum Displacement     0.087756     0.001800     NO 
 RMS     Displacement     0.026726     0.001200     NO 
 Predicted change in Energy=-4.333708D-04
 GradGradGradGradGradGradGradGradGradGradGradGradGradGradGradGradGradGrad

                          Input orientation:                          
 ---------------------------------------------------------------------
 Center     Atomic      Atomic             Coordinates (Angstroms)
 Number     Number       Type             X           Y           Z
 ---------------------------------------------------------------------
      1          6           0       -2.093497   -1.673730    0.000000
      2          6           0       -1.403060   -0.553676    0.000000
      3          6           0        0.058805   -0.492465    0.000000
      4          1           0        0.555209   -1.443510    0.000000
      5          6           0        0.749029    0.630846    0.000000
      6          1           0        0.265939    1.587243    0.000000
      7          1           0        1.821337    0.615094    0.000000
      8         17           0       -3.814010   -1.734681    0.000000
      9          1           0       -1.605906   -2.622442    0.000000
     10          9           0       -2.008245    0.610290    0.000000
 ---------------------------------------------------------------------
                    Distance matrix (angstroms):
                    1          2          3          4          5
     1  C    0.000000
     2  C    1.315760   0.000000
     3  C    2.455156   1.463145   0.000000
     4  H    2.658692   2.150958   1.072802   0.000000
     5  C    3.659375   2.456538   1.318422   2.083392   0.000000
     6  H    4.025032   2.714608   2.089998   3.044526   1.071480
     7  H    4.534826   3.429688   2.081636   2.416802   1.072424
     8  Cl   1.721593   2.684670   4.067161   4.378910   5.139751
     9  H    1.066677   2.078687   2.703343   2.461767   4.016167
    10  F    2.285610   1.311894   2.342811   3.284720   2.757350
                    6          7          8          9         10
     6  H    0.000000
     7  H    1.834213   0.000000
     8  Cl   5.261290   6.105619   0.000000
     9  H    4.607087   4.714619   2.379884   0.000000
    10  F    2.475147   3.829585   2.959675   3.257673   0.000000
 Stoichiometry    C4H4ClF
 Framework group  CS[SG(C4H4ClF)]
 Deg. of freedom    17
 Full point group                 CS      NOp   2
 Largest Abelian subgroup         CS      NOp   2
 Largest concise Abelian subgroup C1      NOp   1
                         Standard orientation:                         
 ---------------------------------------------------------------------
 Center     Atomic      Atomic             Coordinates (Angstroms)
 Number     Number       Type             X           Y           Z
 ---------------------------------------------------------------------
      1          6           0       -0.799953   -0.603720    0.000000
      2          6           0        0.000000    0.440932    0.000000
      3          6           0       -0.464453    1.828404    0.000000
      4          1           0       -1.530022    1.952770    0.000000
      5          6           0        0.338619    2.874020    0.000000
      6          1           0        1.404436    2.764002    0.000000
      7          1           0       -0.058726    3.870118    0.000000
      8         17           0       -0.242963   -2.232721    0.000000
      9          1           0       -1.860197   -0.486754    0.000000
     10          9           0        1.303289    0.290923    0.000000
 ---------------------------------------------------------------------
 Rotational constants (GHZ):     10.2012385      1.4357059      1.2585759
 Standard basis: CC-pVTZ (5D, 7F)
 There are   163 symmetry adapted basis functions of A'  symmetry.
 There are    77 symmetry adapted basis functions of A"  symmetry.
 Integral buffers will be    131072 words long.
 Raffenetti 1 integral format.
 Two-electron integral symmetry is turned on.
   240 basis functions,   422 primitive gaussians,   274 cartesian basis functions
    27 alpha electrons       27 beta electrons
       nuclear repulsion energy       264.4959345196 Hartrees.
 NAtoms=   10 NActive=   10 NUniq=   10 SFac= 7.50D-01 NAtFMM=   80 NAOKFM=F Big=F
 One-electron integrals computed using PRISM.
 NBasis=   240 RedAO= T  NBF=   163    77
 NBsUse=   240 1.00D-06 NBFU=   163    77
 Initial guess read from the read-write file.
 B after Tr=     0.000000    0.000000    0.000000
         Rot=    1.000000    0.000000    0.000000    0.000000 Ang=   0.00 deg.
 Initial guess orbital symmetries:
       Occupied  (A') (A') (A') (A') (A') (A') (A') (A') (A") (A')
                 (A') (A') (A') (A') (A') (A') (A') (A") (A') (A')
                 (A') (A') (A') (A") (A') (A") (A")
       Virtual   (A") (A') (A') (A') (A') (A") (A') (A') (A') (A')
                 (A') (A") (A') (A') (A") (A') (A') (A") (A') (A")
                 (A') (A') (A") (A') (A') (A') (A") (A') (A') (A")
                 (A') (A') (A") (A') (A') (A") (A') (A') (A") (A')
                 (A') (A") (A') (A') (A') (A") (A') (A') (A") (A')
                 (A") (A") (A") (A') (A') (A') (A') (A") (A') (A')
                 (A") (A') (A') (A") (A') (A') (A') (A") (A') (A')
                 (A') (A') (A') (A') (A') (A') (A") (A') (A") (A")
                 (A") (A') (A') (A') (A") (A') (A") (A') (A') (A")
                 (A") (A') (A') (A") (A') (A") (A") (A') (A') (A')
                 (A') (A") (A') (A") (A') (A') (A") (A') (A') (A")
                 (A') (A") (A') (A") (A') (A') (A") (A") (A') (A')
                 (A") (A') (A") (A") (A') (A') (A') (A") (A') (A")
                 (A') (A') (A') (A") (A") (A') (A") (A') (A") (A')
                 (A') (A") (A') (A') (A') (A') (A") (A') (A") (A')
                 (A') (A') (A") (A') (A") (A') (A") (A") (A') (A')
                 (A') (A") (A") (A') (A') (A') (A") (A') (A') (A")
                 (A') (A") (A') (A') (A") (A') (A') (A') (A") (A")
                 (A') (A") (A') (A") (A') (A') (A') (A') (A') (A')
                 (A') (A') (A') (A') (A') (A') (A") (A') (A") (A')
                 (A") (A') (A') (A") (A') (A") (A') (A') (A') (A')
                 (A') (A') (A')
 Harris functional with IExCor=  205 diagonalized for initial guess.
 ExpMin= 1.03D-01 ExpMax= 4.56D+05 ExpMxC= 1.44D+03 IAcc=2 IRadAn=         0 AccDes= 0.00D+00
 HarFok:  IExCor=  205 AccDes= 0.00D+00 IRadAn=         0 IDoV= 1
 ScaDFX=  1.000000  1.000000  1.000000  1.000000
 FoFCou: FMM=F IPFlag=           0 FMFlag=      100000 FMFlg1=           0
         NFxFlg=           0 DoJE=T BraDBF=F KetDBF=T FulRan=T
         Omega=  0.000000  0.000000  1.000000  0.000000  0.000000 ICntrl=     500 IOpCl=  0
         NMat0=    1 NMatS0=    1 NMatT0=    0 NMatD0=    1 NMtDS0=    0 NMtDT0=    0
         I1Cent=           4 NGrid=           0.
 Petite list used in FoFCou.
 Requested convergence on RMS density matrix=1.00D-08 within 128 cycles.
 Requested convergence on MAX density matrix=1.00D-06.
 Requested convergence on             energy=1.00D-06.
 No special actions if energy rises.
 Keep R1 ints in memory in canonical form, NReq=720370894.
 SCF Done:  E(RHF) =  -712.802527373     A.U. after   10 cycles
             Convg  =    0.7110D-08             -V/T =  2.0001
 Calling FoFJK, ICntrl=      2127 FMM=F ISym2X=1 I1Cent= 0 IOpClX= 0 NMat=1 NMatS=1 NMatT=0.
 ***** Axes restored to original set *****
 -------------------------------------------------------------------
 Center     Atomic                   Forces (Hartrees/Bohr)
 Number     Number              X              Y              Z
 -------------------------------------------------------------------
      1        6           0.000289879    0.000913370    0.000000000
      2        6           0.002021062   -0.001748015    0.000000000
      3        6          -0.000667893    0.000041081    0.000000000
      4        1           0.000530463   -0.000184124    0.000000000
      5        6          -0.001424613   -0.001821519    0.000000000
      6        1           0.000110999    0.000622331    0.000000000
      7        1          -0.000111809    0.000057098    0.000000000
      8       17           0.000271282    0.000194063    0.000000000
      9        1           0.000431674   -0.000146092    0.000000000
     10        9          -0.001451046    0.002071808    0.000000000
 -------------------------------------------------------------------
 Cartesian Forces:  Max     0.002071808 RMS     0.000842640

 GradGradGradGradGradGradGradGradGradGradGradGradGradGradGradGradGradGrad
 Berny optimization.
 Using GEDIIS/GDIIS optimizer.
 Internal  Forces:  Max     0.002507569 RMS     0.000732554
 Search for a local minimum.
 Step number   3 out of a maximum of   43
 All quantities printed in internal units (Hartrees-Bohrs-Radians)
 Mixed Optimization -- En-DIIS/RFO-DIIS
 Update second derivatives using D2CorX and points    1    2    3
 DE= -3.79D-04 DEPred=-4.33D-04 R= 8.74D-01
 SS=  1.41D+00  RLast= 5.92D-02 DXNew= 8.4853D-01 1.7763D-01
 Trust test= 8.74D-01 RLast= 5.92D-02 DXMaxT set to 5.05D-01
 Use linear search instead of GDIIS.
     Eigenvalues ---    0.00237   0.01524   0.01525   0.02681   0.02681
     Eigenvalues ---    0.02681   0.02681   0.14798   0.16000   0.16047
     Eigenvalues ---    0.16236   0.20755   0.22144   0.24903   0.25513
     Eigenvalues ---    0.28992   0.32727   0.37095   0.37230   0.37238
     Eigenvalues ---    0.37317   0.53844   0.56042   0.653761000.00000
     Eigenvalues --- 1000.000001000.000001000.000001000.000001000.00000
     Eigenvalues --- 1000.000001000.000001000.00000
 RFO step:  Lambda=-2.73605618D-05 EMin= 2.36824121D-03
 Quartic linear search produced a step of -0.10789.
 Iteration  1 RMS(Cart)=  0.00301815 RMS(Int)=  0.00000210
 Iteration  2 RMS(Cart)=  0.00000230 RMS(Int)=  0.00000000
 Iteration  3 RMS(Cart)=  0.00000000 RMS(Int)=  0.00000000
 ClnCor:  largest displacement from symmetrization is 8.04D-13 for atom     7.
 Variable       Old X    -DE/DX   Delta X   Delta X   Delta X     New X
                                 (Linear)    (Quad)   (Total)
    R1        2.48643  -0.00134  -0.00134  -0.00019  -0.00154   2.48489
    R2        3.25334  -0.00028   0.00126  -0.00229  -0.00103   3.25231
    R3        2.01573   0.00033  -0.00013   0.00098   0.00085   2.01657
    R4        2.76494  -0.00162  -0.00164  -0.00235  -0.00399   2.76095
    R5        2.47912   0.00251  -0.00006   0.00433   0.00427   2.48339
    R6        2.02730   0.00041  -0.00050   0.00163   0.00113   2.02844
    R7        2.49146  -0.00172  -0.00087  -0.00148  -0.00235   2.48911
    R8        2.02480   0.00051   0.00003   0.00117   0.00119   2.02600
    R9        2.02659  -0.00011  -0.00010  -0.00015  -0.00025   2.02634
    A1        2.15862  -0.00019  -0.00200   0.00168  -0.00032   2.15830
    A2        2.11443  -0.00023  -0.00042  -0.00094  -0.00135   2.11308
    A3        2.01013   0.00041   0.00241  -0.00074   0.00167   2.01180
    A4        2.16506  -0.00087  -0.00124  -0.00167  -0.00291   2.16215
    A5        2.10971   0.00002   0.00100  -0.00131  -0.00031   2.10940
    A6        2.00842   0.00084   0.00024   0.00297   0.00322   2.01163
    A7        2.01001   0.00081   0.00168   0.00197   0.00365   2.01366
    A8        2.16362  -0.00085  -0.00313   0.00054  -0.00260   2.16103
    A9        2.10955   0.00003   0.00146  -0.00251  -0.00105   2.10850
   A10        2.12288   0.00048  -0.00121   0.00415   0.00294   2.12583
   A11        2.10709  -0.00018  -0.00084   0.00005  -0.00079   2.10630
   A12        2.05322  -0.00029   0.00205  -0.00420  -0.00216   2.05106
    D1        3.14159   0.00000   0.00000   0.00000   0.00000   3.14159
    D2        0.00000   0.00000   0.00000   0.00000   0.00000   0.00000
    D3        0.00000   0.00000   0.00000   0.00000   0.00000   0.00000
    D4        3.14159   0.00000   0.00000   0.00000   0.00000   3.14159
    D5        0.00000   0.00000   0.00000   0.00000   0.00000   0.00000
    D6        3.14159   0.00000   0.00000   0.00000   0.00000   3.14159
    D7        3.14159   0.00000   0.00000   0.00000   0.00000   3.14159
    D8        0.00000   0.00000   0.00000   0.00000   0.00000   0.00000
    D9        0.00000   0.00000   0.00000   0.00000   0.00000   0.00000
   D10        3.14159   0.00000   0.00000   0.00000   0.00000   3.14159
   D11        3.14159   0.00000   0.00000   0.00000   0.00000   3.14159
   D12        0.00000   0.00000   0.00000   0.00000   0.00000   0.00000
         Item               Value     Threshold  Converged?
 Maximum Force            0.002508     0.000450     NO 
 RMS     Force            0.000733     0.000300     NO 
 Maximum Displacement     0.007971     0.001800     NO 
 RMS     Displacement     0.003018     0.001200     NO 
 Predicted change in Energy=-1.917852D-05
 GradGradGradGradGradGradGradGradGradGradGradGradGradGradGradGradGradGrad

                          Input orientation:                          
 ---------------------------------------------------------------------
 Center     Atomic      Atomic             Coordinates (Angstroms)
 Number     Number       Type             X           Y           Z
 ---------------------------------------------------------------------
      1          6           0       -2.091576   -1.672183    0.000000
      2          6           0       -1.402519   -0.552236    0.000000
      3          6           0        0.057357   -0.494118    0.000000
      4          1           0        0.555551   -1.444904    0.000000
      5          6           0        0.746327    0.628507    0.000000
      6          1           0        0.265257    1.586627    0.000000
      7          1           0        1.818500    0.612488    0.000000
      8         17           0       -3.811511   -1.734030    0.000000
      9          1           0       -1.601688   -2.620216    0.000000
     10          9           0       -2.010097    0.613034    0.000000
 ---------------------------------------------------------------------
                    Distance matrix (angstroms):
                    1          2          3          4          5
     1  C    0.000000
     2  C    1.314945   0.000000
     3  C    2.450663   1.461033   0.000000
     4  H    2.656866   2.151952   1.073402   0.000000
     5  C    3.653336   2.451875   1.317181   2.082169   0.000000
     6  H    4.021754   2.712233   2.091105   3.045398   1.072111
     7  H    4.528622   3.425135   2.079952   2.414105   1.072293
     8  Cl   1.721046   2.683259   4.062699   4.376622   5.133757
     9  H    1.067125   2.077549   2.696798   2.456632   4.008413
    10  F    2.286669   1.314155   2.345241   3.289021   2.756467
                    6          7          8          9         10
     6  H    0.000000
     7  H    1.833442   0.000000
     8  Cl   5.258022   6.099440   0.000000
     9  H    4.602500   4.706173   2.380891   0.000000
    10  F    2.474898   3.828597   2.958682   3.258942   0.000000
 Stoichiometry    C4H4ClF
 Framework group  CS[SG(C4H4ClF)]
 Deg. of freedom    17
 Full point group                 CS      NOp   2
 Largest Abelian subgroup         CS      NOp   2
 Largest concise Abelian subgroup C1      NOp   1
                         Standard orientation:                         
 ---------------------------------------------------------------------
 Center     Atomic      Atomic             Coordinates (Angstroms)
 Number     Number       Type             X           Y           Z
 ---------------------------------------------------------------------
      1          6           0       -0.798477   -0.603275    0.000000
      2          6           0        0.000000    0.441482    0.000000
      3          6           0       -0.469112    1.825155    0.000000
      4          1           0       -1.535302    1.949377    0.000000
      5          6           0        0.331896    2.870790    0.000000
      6          1           0        1.398793    2.765183    0.000000
      7          1           0       -0.067433    3.865953    0.000000
      8         17           0       -0.239615   -2.231057    0.000000
      9          1           0       -1.859118   -0.485820    0.000000
     10          9           0        1.305631    0.292040    0.000000
 ---------------------------------------------------------------------
 Rotational constants (GHZ):     10.1678742      1.4389314      1.2605427
 Standard basis: CC-pVTZ (5D, 7F)
 There are   163 symmetry adapted basis functions of A'  symmetry.
 There are    77 symmetry adapted basis functions of A"  symmetry.
 Integral buffers will be    131072 words long.
 Raffenetti 1 integral format.
 Two-electron integral symmetry is turned on.
   240 basis functions,   422 primitive gaussians,   274 cartesian basis functions
    27 alpha electrons       27 beta electrons
       nuclear repulsion energy       264.5862881651 Hartrees.
 NAtoms=   10 NActive=   10 NUniq=   10 SFac= 7.50D-01 NAtFMM=   80 NAOKFM=F Big=F
 One-electron integrals computed using PRISM.
 NBasis=   240 RedAO= T  NBF=   163    77
 NBsUse=   240 1.00D-06 NBFU=   163    77
 Initial guess read from the read-write file.
 B after Tr=     0.000000    0.000000    0.000000
         Rot=    1.000000    0.000000    0.000000    0.000000 Ang=   0.00 deg.
 Initial guess orbital symmetries:
       Occupied  (A') (A') (A') (A') (A') (A') (A') (A') (A") (A')
                 (A') (A') (A') (A') (A') (A') (A') (A") (A') (A')
                 (A') (A') (A') (A") (A') (A") (A")
       Virtual   (A") (A') (A') (A') (A') (A") (A') (A') (A') (A')
                 (A') (A") (A') (A') (A") (A') (A') (A") (A') (A")
                 (A') (A') (A") (A') (A') (A') (A") (A') (A') (A")
                 (A') (A') (A") (A') (A') (A") (A') (A') (A") (A')
                 (A') (A") (A') (A') (A') (A") (A') (A') (A") (A')
                 (A") (A") (A") (A') (A') (A') (A') (A") (A') (A')
                 (A") (A') (A') (A") (A') (A') (A') (A") (A') (A')
                 (A') (A') (A') (A') (A') (A') (A") (A') (A") (A")
                 (A") (A') (A') (A') (A") (A') (A") (A') (A') (A")
                 (A") (A') (A") (A') (A') (A") (A") (A') (A') (A')
                 (A') (A") (A') (A") (A') (A') (A") (A') (A') (A")
                 (A') (A") (A') (A") (A') (A') (A") (A") (A') (A')
                 (A") (A') (A") (A') (A") (A') (A') (A") (A') (A")
                 (A') (A') (A') (A") (A") (A') (A") (A") (A') (A')
                 (A') (A") (A') (A') (A') (A') (A") (A') (A") (A')
                 (A') (A') (A") (A") (A') (A') (A") (A") (A') (A')
                 (A') (A") (A") (A') (A') (A') (A') (A") (A') (A")
                 (A') (A") (A') (A') (A") (A') (A') (A') (A") (A')
                 (A") (A") (A') (A") (A') (A') (A') (A') (A') (A')
                 (A') (A') (A') (A') (A') (A') (A") (A') (A") (A')
                 (A") (A') (A') (A") (A') (A") (A') (A') (A') (A')
                 (A') (A') (A')
 Requested convergence on RMS density matrix=1.00D-08 within 128 cycles.
 Requested convergence on MAX density matrix=1.00D-06.
 Requested convergence on             energy=1.00D-06.
 No special actions if energy rises.
 Keep R1 ints in memory in canonical form, NReq=720370894.
 SCF Done:  E(RHF) =  -712.802547207     A.U. after    8 cycles
             Convg  =    0.7374D-08             -V/T =  2.0001
 Calling FoFJK, ICntrl=      2127 FMM=F ISym2X=1 I1Cent= 0 IOpClX= 0 NMat=1 NMatS=1 NMatT=0.
 ***** Axes restored to original set *****
 -------------------------------------------------------------------
 Center     Atomic                   Forces (Hartrees/Bohr)
 Number     Number              X              Y              Z
 -------------------------------------------------------------------
      1        6          -0.000223433    0.000100896    0.000000000
      2        6           0.000307967   -0.000471989    0.000000000
      3        6          -0.000196098   -0.000150756    0.000000000
      4        1          -0.000020580    0.000118405    0.000000000
      5        6          -0.000068618   -0.000012909    0.000000000
      6        1           0.000070012    0.000047830    0.000000000
      7        1           0.000065656    0.000084097    0.000000000
      8       17           0.000007052    0.000009477    0.000000000
      9        1           0.000110543    0.000071093    0.000000000
     10        9          -0.000052502    0.000203856    0.000000000
 -------------------------------------------------------------------
 Cartesian Forces:  Max     0.000471989 RMS     0.000133980

 GradGradGradGradGradGradGradGradGradGradGradGradGradGradGradGradGradGrad
 Berny optimization.
 Using GEDIIS/GDIIS optimizer.
 Internal  Forces:  Max     0.000205034 RMS     0.000084692
 Search for a local minimum.
 Step number   4 out of a maximum of   43
 All quantities printed in internal units (Hartrees-Bohrs-Radians)
 Mixed Optimization -- En-DIIS/RFO-DIIS
 Swaping is turned off.
 Update second derivatives using D2CorX and points    1    2    3    4
 DE= -1.98D-05 DEPred=-1.92D-05 R= 1.03D+00
 SS=  1.41D+00  RLast= 1.03D-02 DXNew= 8.4853D-01 3.0793D-02
 Trust test= 1.03D+00 RLast= 1.03D-02 DXMaxT set to 5.05D-01
     Eigenvalues ---    0.00237   0.01521   0.01523   0.02681   0.02681
     Eigenvalues ---    0.02681   0.02681   0.14344   0.15587   0.16044
     Eigenvalues ---    0.16166   0.20696   0.22021   0.24816   0.26811
     Eigenvalues ---    0.29148   0.32074   0.37151   0.37216   0.37257
     Eigenvalues ---    0.37774   0.53210   0.55485   0.658901000.00000
     Eigenvalues --- 1000.000001000.000001000.000001000.000001000.00000
     Eigenvalues --- 1000.000001000.000001000.00000
 En-DIIS/RFO-DIIS IScMMF=        0 using points:     4    3
 RFO step:  Lambda=-4.63618872D-07.
 DIIS coeffs:      1.03103     -0.03103
 Iteration  1 RMS(Cart)=  0.00045892 RMS(Int)=  0.00000014
 Iteration  2 RMS(Cart)=  0.00000020 RMS(Int)=  0.00000000
 ClnCor:  largest displacement from symmetrization is 2.28D-13 for atom     5.
 Variable       Old X    -DE/DX   Delta X   Delta X   Delta X     New X
                                  (DIIS)     (GDIIS)  (Total)
    R1        2.48489  -0.00010  -0.00005  -0.00014  -0.00019   2.48470
    R2        3.25231  -0.00001  -0.00003  -0.00007  -0.00010   3.25220
    R3        2.01657  -0.00001   0.00003  -0.00003  -0.00001   2.01657
    R4        2.76095  -0.00015  -0.00012  -0.00046  -0.00058   2.76037
    R5        2.48339   0.00021   0.00013   0.00037   0.00050   2.48390
    R6        2.02844  -0.00011   0.00004  -0.00030  -0.00027   2.02817
    R7        2.48911   0.00014  -0.00007   0.00030   0.00023   2.48934
    R8        2.02600   0.00001   0.00004   0.00003   0.00006   2.02606
    R9        2.02634   0.00006  -0.00001   0.00018   0.00018   2.02652
    A1        2.15830   0.00007  -0.00001   0.00039   0.00038   2.15869
    A2        2.11308  -0.00017  -0.00004  -0.00100  -0.00104   2.11204
    A3        2.01180   0.00010   0.00005   0.00060   0.00066   2.01246
    A4        2.16215   0.00019  -0.00009   0.00084   0.00075   2.16290
    A5        2.10940  -0.00004  -0.00001  -0.00019  -0.00019   2.10921
    A6        2.01163  -0.00015   0.00010  -0.00066  -0.00056   2.01107
    A7        2.01366   0.00005   0.00011   0.00025   0.00037   2.01402
    A8        2.16103  -0.00003  -0.00008  -0.00004  -0.00012   2.16090
    A9        2.10850  -0.00002  -0.00003  -0.00021  -0.00024   2.10826
   A10        2.12583   0.00006   0.00009   0.00040   0.00049   2.12631
   A11        2.10630   0.00006  -0.00002   0.00041   0.00038   2.10668
   A12        2.05106  -0.00011  -0.00007  -0.00081  -0.00087   2.05019
    D1        3.14159   0.00000   0.00000   0.00000   0.00000   3.14159
    D2        0.00000   0.00000   0.00000   0.00000   0.00000   0.00000
    D3        0.00000   0.00000   0.00000   0.00000   0.00000   0.00000
    D4        3.14159   0.00000   0.00000   0.00000   0.00000   3.14159
    D5        0.00000   0.00000   0.00000   0.00000   0.00000   0.00000
    D6        3.14159   0.00000   0.00000   0.00000   0.00000   3.14159
    D7        3.14159   0.00000   0.00000   0.00000   0.00000   3.14159
    D8        0.00000   0.00000   0.00000   0.00000   0.00000   0.00000
    D9        0.00000   0.00000   0.00000   0.00000   0.00000   0.00000
   D10        3.14159   0.00000   0.00000   0.00000   0.00000   3.14159
   D11        3.14159   0.00000   0.00000   0.00000   0.00000   3.14159
   D12        0.00000   0.00000   0.00000   0.00000   0.00000   0.00000
         Item               Value     Threshold  Converged?
 Maximum Force            0.000205     0.000450     YES
 RMS     Force            0.000085     0.000300     YES
 Maximum Displacement     0.001196     0.001800     YES
 RMS     Displacement     0.000459     0.001200     YES
 Predicted change in Energy=-4.798362D-07
 Optimization completed.
    -- Stationary point found.
                           ----------------------------
                           !   Optimized Parameters   !
                           ! (Angstroms and Degrees)  !
 --------------------------                            --------------------------
 ! Name  Definition              Value          Derivative Info.                !
 --------------------------------------------------------------------------------
 ! R1    R(1,2)                  1.3149         -DE/DX =   -0.0001              !
 ! R2    R(1,8)                  1.721          -DE/DX =    0.0                 !
 ! R3    R(1,9)                  1.0671         -DE/DX =    0.0                 !
 ! R4    R(2,3)                  1.461          -DE/DX =   -0.0001              !
 ! R5    R(2,10)                 1.3142         -DE/DX =    0.0002              !
 ! R6    R(3,4)                  1.0734         -DE/DX =   -0.0001              !
 ! R7    R(3,5)                  1.3172         -DE/DX =    0.0001              !
 ! R8    R(5,6)                  1.0721         -DE/DX =    0.0                 !
 ! R9    R(5,7)                  1.0723         -DE/DX =    0.0001              !
 ! A1    A(2,1,8)              123.6616         -DE/DX =    0.0001              !
 ! A2    A(2,1,9)              121.0705         -DE/DX =   -0.0002              !
 ! A3    A(8,1,9)              115.2679         -DE/DX =    0.0001              !
 ! A4    A(1,2,3)              123.882          -DE/DX =    0.0002              !
 ! A5    A(1,2,10)             120.86           -DE/DX =    0.0                 !
 ! A6    A(3,2,10)             115.258          -DE/DX =   -0.0002              !
 ! A7    A(2,3,4)              115.374          -DE/DX =    0.0001              !
 ! A8    A(2,3,5)              123.8177         -DE/DX =    0.0                 !
 ! A9    A(4,3,5)              120.8083         -DE/DX =    0.0                 !
 ! A10   A(3,5,6)              121.8009         -DE/DX =    0.0001              !
 ! A11   A(3,5,7)              120.682          -DE/DX =    0.0001              !
 ! A12   A(6,5,7)              117.5171         -DE/DX =   -0.0001              !
 ! D1    D(8,1,2,3)            180.0            -DE/DX =    0.0                 !
 ! D2    D(8,1,2,10)             0.0            -DE/DX =    0.0                 !
 ! D3    D(9,1,2,3)              0.0            -DE/DX =    0.0                 !
 ! D4    D(9,1,2,10)           180.0            -DE/DX =    0.0                 !
 ! D5    D(1,2,3,4)              0.0            -DE/DX =    0.0                 !
 ! D6    D(1,2,3,5)            180.0            -DE/DX =    0.0                 !
 ! D7    D(10,2,3,4)           180.0            -DE/DX =    0.0                 !
 ! D8    D(10,2,3,5)             0.0            -DE/DX =    0.0                 !
 ! D9    D(2,3,5,6)              0.0            -DE/DX =    0.0                 !
 ! D10   D(2,3,5,7)            180.0            -DE/DX =    0.0                 !
 ! D11   D(4,3,5,6)            180.0            -DE/DX =    0.0                 !
 ! D12   D(4,3,5,7)              0.0            -DE/DX =    0.0                 !
 --------------------------------------------------------------------------------
 GradGradGradGradGradGradGradGradGradGradGradGradGradGradGradGradGradGrad

                          Input orientation:                          
 ---------------------------------------------------------------------
 Center     Atomic      Atomic             Coordinates (Angstroms)
 Number     Number       Type             X           Y           Z
 ---------------------------------------------------------------------
      1          6           0       -2.091576   -1.672183    0.000000
      2          6           0       -1.402519   -0.552236    0.000000
      3          6           0        0.057357   -0.494118    0.000000
      4          1           0        0.555551   -1.444904    0.000000
      5          6           0        0.746327    0.628507    0.000000
      6          1           0        0.265257    1.586627    0.000000
      7          1           0        1.818500    0.612488    0.000000
      8         17           0       -3.811511   -1.734030    0.000000
      9          1           0       -1.601688   -2.620216    0.000000
     10          9           0       -2.010097    0.613034    0.000000
 ---------------------------------------------------------------------
                    Distance matrix (angstroms):
                    1          2          3          4          5
     1  C    0.000000
     2  C    1.314945   0.000000
     3  C    2.450663   1.461033   0.000000
     4  H    2.656866   2.151952   1.073402   0.000000
     5  C    3.653336   2.451875   1.317181   2.082169   0.000000
     6  H    4.021754   2.712233   2.091105   3.045398   1.072111
     7  H    4.528622   3.425135   2.079952   2.414105   1.072293
     8  Cl   1.721046   2.683259   4.062699   4.376622   5.133757
     9  H    1.067125   2.077549   2.696798   2.456632   4.008413
    10  F    2.286669   1.314155   2.345241   3.289021   2.756467
                    6          7          8          9         10
     6  H    0.000000
     7  H    1.833442   0.000000
     8  Cl   5.258022   6.099440   0.000000
     9  H    4.602500   4.706173   2.380891   0.000000
    10  F    2.474898   3.828597   2.958682   3.258942   0.000000
 Stoichiometry    C4H4ClF
 Framework group  CS[SG(C4H4ClF)]
 Deg. of freedom    17
 Full point group                 CS      NOp   2
 Largest Abelian subgroup         CS      NOp   2
 Largest concise Abelian subgroup C1      NOp   1
                         Standard orientation:                         
 ---------------------------------------------------------------------
 Center     Atomic      Atomic             Coordinates (Angstroms)
 Number     Number       Type             X           Y           Z
 ---------------------------------------------------------------------
      1          6           0       -0.798477   -0.603275    0.000000
      2          6           0        0.000000    0.441482    0.000000
      3          6           0       -0.469112    1.825155    0.000000
      4          1           0       -1.535302    1.949377    0.000000
      5          6           0        0.331896    2.870790    0.000000
      6          1           0        1.398793    2.765183    0.000000
      7          1           0       -0.067433    3.865953    0.000000
      8         17           0       -0.239615   -2.231057    0.000000
      9          1           0       -1.859118   -0.485820    0.000000
     10          9           0        1.305631    0.292040    0.000000
 ---------------------------------------------------------------------
 Rotational constants (GHZ):     10.1678742      1.4389314      1.2605427

 **********************************************************************

            Population analysis using the SCF density.

 **********************************************************************

 Orbital symmetries:
       Occupied  (A') (A') (A') (A') (A') (A') (A') (A') (A") (A')
                 (A') (A') (A') (A') (A') (A') (A') (A") (A') (A')
                 (A') (A') (A') (A") (A') (A") (A")
       Virtual   (A") (A') (A') (A') (A') (A") (A') (A') (A') (A')
                 (A') (A") (A') (A') (A") (A') (A') (A") (A') (A")
                 (A') (A') (A") (A') (A') (A') (A") (A') (A') (A")
                 (A') (A') (A") (A') (A') (A") (A') (A') (A") (A')
                 (A') (A") (A') (A') (A') (A") (A') (A') (A") (A')
                 (A") (A") (A") (A') (A') (A') (A') (A") (A') (A')
                 (A") (A') (A') (A") (A') (A') (A') (A") (A') (A')
                 (A') (A') (A') (A') (A') (A') (A") (A') (A") (A")
                 (A") (A') (A') (A') (A") (A') (A") (A') (A') (A")
                 (A") (A') (A") (A') (A') (A") (A") (A') (A') (A')
                 (A') (A") (A') (A") (A') (A') (A") (A') (A') (A")
                 (A') (A") (A') (A") (A') (A') (A") (A") (A') (A')
                 (A") (A') (A") (A") (A') (A') (A') (A") (A') (A")
                 (A') (A') (A') (A") (A") (A') (A") (A") (A') (A')
                 (A') (A") (A') (A') (A') (A') (A") (A') (A") (A')
                 (A') (A') (A") (A") (A') (A') (A") (A") (A') (A')
                 (A') (A") (A") (A') (A') (A') (A') (A") (A') (A")
                 (A') (A") (A') (A') (A") (A') (A') (A') (A") (A")
                 (A') (A") (A') (A") (A') (A') (A') (A') (A') (A')
                 (A') (A') (A') (A') (A') (A') (A") (A') (A") (A')
                 (A") (A') (A') (A") (A') (A") (A') (A') (A') (A')
                 (A') (A') (A')
 The electronic state is 1-A'.
 Alpha  occ. eigenvalues -- -104.84468 -26.32402 -11.34301 -11.29378 -11.25725
 Alpha  occ. eigenvalues --  -11.24490 -10.56949  -8.03644  -8.03443  -8.03442
 Alpha  occ. eigenvalues --   -1.65522  -1.16846  -1.10094  -1.01181  -0.84973
 Alpha  occ. eigenvalues --   -0.81517  -0.74655  -0.71570  -0.68931  -0.63874
 Alpha  occ. eigenvalues --   -0.61272  -0.57229  -0.53427  -0.51724  -0.45787
 Alpha  occ. eigenvalues --   -0.44336  -0.33864
 Alpha virt. eigenvalues --    0.09846   0.13971   0.16466   0.19613   0.20390
 Alpha virt. eigenvalues --    0.22078   0.22472   0.31008   0.33265   0.35775
 Alpha virt. eigenvalues --    0.38536   0.41112   0.43523   0.46047   0.46614
 Alpha virt. eigenvalues --    0.47700   0.49079   0.50776   0.50825   0.52899
 Alpha virt. eigenvalues --    0.54989   0.55419   0.56534   0.58996   0.60659
 Alpha virt. eigenvalues --    0.62601   0.63482   0.65462   0.66570   0.67193
 Alpha virt. eigenvalues --    0.69601   0.72228   0.73308   0.78811   0.81548
 Alpha virt. eigenvalues --    0.82499   0.84747   0.88464   0.88847   0.89388
 Alpha virt. eigenvalues --    0.94427   0.95993   0.96307   0.99083   1.04203
 Alpha virt. eigenvalues --    1.05789   1.08098   1.08743   1.12086   1.15571
 Alpha virt. eigenvalues --    1.18089   1.21781   1.22814   1.23430   1.26031
 Alpha virt. eigenvalues --    1.30814   1.37449   1.38585   1.39703   1.41383
 Alpha virt. eigenvalues --    1.44528   1.46528   1.51783   1.53343   1.56103
 Alpha virt. eigenvalues --    1.59705   1.63093   1.65193   1.71142   1.72985
 Alpha virt. eigenvalues --    1.76913   1.80520   1.93508   1.96352   2.06270
 Alpha virt. eigenvalues --    2.18978   2.20764   2.23948   2.24829   2.26493
 Alpha virt. eigenvalues --    2.28756   2.30628   2.32861   2.37427   2.38363
 Alpha virt. eigenvalues --    2.40091   2.40704   2.41337   2.43511   2.44149
 Alpha virt. eigenvalues --    2.49682   2.52592   2.57452   2.57520   2.58423
 Alpha virt. eigenvalues --    2.59786   2.60679   2.61655   2.64486   2.69889
 Alpha virt. eigenvalues --    2.74047   2.75051   2.80290   2.82185   2.82792
 Alpha virt. eigenvalues --    2.83876   2.86193   2.89713   2.97364   3.01090
 Alpha virt. eigenvalues --    3.02147   3.04220   3.07887   3.08486   3.08763
 Alpha virt. eigenvalues --    3.14514   3.15812   3.19203   3.19749   3.24616
 Alpha virt. eigenvalues --    3.26647   3.29326   3.31620   3.33487   3.33521
 Alpha virt. eigenvalues --    3.36612   3.38092   3.43084   3.44323   3.49533
 Alpha virt. eigenvalues --    3.50539   3.51046   3.55634   3.57063   3.59355
 Alpha virt. eigenvalues --    3.60603   3.65396   3.66909   3.67522   3.71779
 Alpha virt. eigenvalues --    3.76917   3.77899   3.81701   3.82933   3.88174
 Alpha virt. eigenvalues --    3.91341   3.95172   3.99611   4.00394   4.03442
 Alpha virt. eigenvalues --    4.06671   4.13158   4.15067   4.16801   4.16949
 Alpha virt. eigenvalues --    4.20479   4.24708   4.26946   4.33310   4.35493
 Alpha virt. eigenvalues --    4.37939   4.38295   4.45490   4.47175   4.52154
 Alpha virt. eigenvalues --    4.57940   4.63975   4.65320   4.77856   4.83670
 Alpha virt. eigenvalues --    4.84822   4.90128   4.90890   4.96748   5.05608
 Alpha virt. eigenvalues --    5.09011   5.21056   5.22776   5.24728   5.35668
 Alpha virt. eigenvalues --    5.35706   5.37002   5.44817   5.50157   5.52642
 Alpha virt. eigenvalues --    5.63333   5.64613   5.67077   5.76249   5.91162
 Alpha virt. eigenvalues --    6.01714   6.19779   6.34327   6.36548   6.68410
 Alpha virt. eigenvalues --    6.74942   7.37838   7.39406   7.52376   7.59844
[...]
 Frequencies --  3331.2540              3390.6693              3400.7972
 Red. masses --     1.0953                 1.1172                 1.0942
 Frc consts  --     7.1617                 7.5676                 7.4560
 IR Inten    --     3.5120                 4.1727                17.1848
  Atom  AN      X      Y      Z        X      Y      Z        X      Y      Z
     1   6     0.00   0.00   0.00     0.00   0.00   0.00    -0.09   0.00   0.00
     2   6     0.00   0.00   0.00     0.00   0.00   0.00     0.00   0.01   0.00
     3   6    -0.08   0.01   0.00    -0.01   0.00   0.00    -0.01   0.00   0.00
     4   1     0.94  -0.11   0.00     0.14  -0.02   0.00     0.06  -0.01   0.00
     5   6     0.02   0.01   0.00    -0.08   0.06   0.00     0.00   0.00   0.00
     6   1    -0.28   0.03   0.00     0.71  -0.07   0.00     0.03   0.00   0.00
     7   1     0.03  -0.08   0.00     0.25  -0.63   0.00     0.01  -0.03   0.00
     8  17     0.00   0.00   0.00     0.00   0.00   0.00     0.00   0.00   0.00
     9   1    -0.05   0.00   0.00    -0.05   0.01   0.00     0.99  -0.10   0.00
    10   9     0.00   0.00   0.00     0.00   0.00   0.00     0.00   0.00   0.00

 -------------------
 - Thermochemistry -
 -------------------
 Temperature   298.150 Kelvin.  Pressure   1.00000 Atm.
 Atom     1 has atomic number  6 and mass  12.00000
 Atom     2 has atomic number  6 and mass  12.00000
 Atom     3 has atomic number  6 and mass  12.00000
 Atom     4 has atomic number  1 and mass   1.00783
 Atom     5 has atomic number  6 and mass  12.00000
 Atom     6 has atomic number  1 and mass   1.00783
 Atom     7 has atomic number  1 and mass   1.00783
 Atom     8 has atomic number 17 and mass  34.96885
 Atom     9 has atomic number  1 and mass   1.00783
 Atom    10 has atomic number  9 and mass  18.99840
 Molecular mass:   105.99856 amu.
 Principal axes and moments of inertia in atomic units:
                           1         2         3
     Eigenvalues --   177.494451254.223201431.71765
           X            0.11586   0.99327   0.00000
           Y            0.99327  -0.11586   0.00000
           Z            0.00000   0.00000   1.00000
 This molecule is an asymmetric top.
 Rotational symmetry number  1.
 Rotational temperatures (Kelvin)      0.48798     0.06906     0.06050
 Rotational constants (GHZ):          10.16787     1.43893     1.26054
 Zero-point vibrational energy     193636.0 (Joules/Mol)
                                   46.28012 (Kcal/Mol)
 Warning -- explicit consideration of   6 degrees of freedom as
           vibrations may cause significant error
 Vibrational temperatures:    164.19   261.86   381.35   432.40   626.77
          (Kelvin)            825.56   976.68  1165.87  1296.49  1314.74
                             1381.42  1572.20  1611.35  1634.18  1862.89
                             2057.65  2123.23  2258.54  2598.69  2716.10
                             4751.60  4792.93  4878.41  4892.98
 
 Zero-point correction=                           0.073752 (Hartree/Particle)
 Thermal correction to Energy=                    0.079663
 Thermal correction to Enthalpy=                  0.080607
 Thermal correction to Gibbs Free Energy=         0.043455
 Sum of electronic and zero-point Energies=           -712.728795
 Sum of electronic and thermal Energies=              -712.722884
 Sum of electronic and thermal Enthalpies=            -712.721940
 Sum of electronic and thermal Free Energies=         -712.759092
 
                     E (Thermal)             CV                S
                      KCal/Mol        Cal/Mol-Kelvin    Cal/Mol-Kelvin
 Total                   49.989             19.791             78.193
 Electronic               0.000              0.000              0.000
 Translational            0.889              2.981             39.892
 Rotational               0.889              2.981             27.258
 Vibrational             48.212             13.829             11.044
 Vibration     1          0.607              1.938              3.198
 Vibration     2          0.630              1.864              2.308
 Vibration     3          0.671              1.737              1.628
 Vibration     4          0.693              1.673              1.414
 Vibration     5          0.796              1.393              0.840
 Vibration     6          0.930              1.088              0.497
                       Q            Log10(Q)             Ln(Q)
 Total Bot       0.102797D-19        -19.988019        -46.024115
 Total V=0       0.861991D+14         13.935503         32.087681
 Vib (Bot)       0.118583D-32        -32.925979        -75.814869
 Vib (Bot)    1  0.179313D+01          0.253612          0.583963
 Vib (Bot)    2  0.110282D+01          0.042504          0.097869
 Vib (Bot)    3  0.730964D+00         -0.136104         -0.313391
 Vib (Bot)    4  0.632607D+00         -0.198866         -0.457906
 Vib (Bot)    5  0.398212D+00         -0.399886         -0.920771
 Vib (Bot)    6  0.267221D+00         -0.573130         -1.319680
 Vib (V=0)       0.994358D+01          0.997543          2.296927
 Vib (V=0)    1  0.236154D+01          0.373195          0.859312
 Vib (V=0)    2  0.171087D+01          0.233217          0.537002
 Vib (V=0)    3  0.138561D+01          0.141642          0.326142
 Vib (V=0)    4  0.130634D+01          0.116058          0.267233
 Vib (V=0)    5  0.113920D+01          0.056599          0.130324
 Vib (V=0)    6  0.106693D+01          0.028135          0.064783
 Electronic      0.100000D+01          0.000000          0.000000
 Translational   0.428948D+08          7.632405         17.574262
 Rotational      0.202095D+06          5.305555         12.216492
 ***** Axes restored to original set *****
 -------------------------------------------------------------------
 Center     Atomic                   Forces (Hartrees/Bohr)
 Number     Number              X              Y              Z
 -------------------------------------------------------------------
      1        6          -0.000223440    0.000100931    0.000000000
      2        6           0.000308009   -0.000471837    0.000000000
      3        6          -0.000196140   -0.000150758    0.000000000
      4        1          -0.000020568    0.000118388    0.000000000
      5        6          -0.000068622   -0.000012891    0.000000000
      6        1           0.000070018    0.000047803    0.000000000
      7        1           0.000065650    0.000084096    0.000000000
      8       17           0.000006968    0.000009469    0.000000000
      9        1           0.000110604    0.000071020    0.000000000
     10        9          -0.000052477    0.000203779    0.000000000
 -------------------------------------------------------------------
 Cartesian Forces:  Max     0.000471837 RMS     0.000133964

 GradGradGradGradGradGradGradGradGradGradGradGradGradGradGradGradGradGrad
 Berny optimization.
 Internal  Forces:  Max     0.000204954 RMS     0.000084682
 Search for a local minimum.
 Step number   1 out of a maximum of    2
 All quantities printed in internal units (Hartrees-Bohrs-Radians)
 Second derivative matrix not updated -- analytic derivatives used.
     Eigenvalues ---    0.00788   0.02659   0.03001   0.03706   0.04364
     Eigenvalues ---    0.05001   0.05317   0.11967   0.12249   0.12699
     Eigenvalues ---    0.15211   0.18651   0.19491   0.20754   0.27156
     Eigenvalues ---    0.30982   0.39056   0.39270   0.39564   0.40475
     Eigenvalues ---    0.40858   0.51810   0.71131   0.729741000.00000
     Eigenvalues --- 1000.000001000.000001000.000001000.000001000.00000
     Eigenvalues --- 1000.000001000.000001000.00000
 Angle between quadratic step and forces=  27.43 degrees.
 Linear search not attempted -- first point.
 Iteration  1 RMS(Cart)=  0.00062000 RMS(Int)=  0.00000023
 Iteration  2 RMS(Cart)=  0.00000034 RMS(Int)=  0.00000000
 ClnCor:  largest displacement from symmetrization is 4.58D-14 for atom     1.
 Variable       Old X    -DE/DX   Delta X   Delta X   Delta X     New X
                                 (Linear)    (Quad)   (Total)
    R1        2.48489  -0.00010   0.00000  -0.00016  -0.00016   2.48473
    R2        3.25231  -0.00001   0.00000  -0.00033  -0.00033   3.25198
    R3        2.01657  -0.00001   0.00000   0.00003   0.00003   2.01660
    R4        2.76095  -0.00015   0.00000  -0.00045  -0.00045   2.76050
    R5        2.48339   0.00020   0.00000   0.00064   0.00064   2.48403
    R6        2.02844  -0.00011   0.00000  -0.00029  -0.00029   2.02815
    R7        2.48911   0.00014   0.00000   0.00018   0.00018   2.48929
    R8        2.02600   0.00001   0.00000   0.00002   0.00002   2.02602
    R9        2.02634   0.00006   0.00000   0.00019   0.00019   2.02653
    A1        2.15830   0.00007   0.00000   0.00045   0.00045   2.15875
    A2        2.11308  -0.00017   0.00000  -0.00129  -0.00129   2.11179
    A3        2.01180   0.00010   0.00000   0.00084   0.00084   2.01264
    A4        2.16215   0.00019   0.00000   0.00103   0.00103   2.16318
    A5        2.10940  -0.00004   0.00000  -0.00030  -0.00030   2.10910
    A6        2.01163  -0.00015   0.00000  -0.00072  -0.00072   2.01091
    A7        2.01366   0.00005   0.00000   0.00054   0.00054   2.01419
    A8        2.16103  -0.00003   0.00000  -0.00020  -0.00020   2.16083
    A9        2.10850  -0.00002   0.00000  -0.00034  -0.00034   2.10816
   A10        2.12583   0.00006   0.00000   0.00053   0.00053   2.12636
   A11        2.10630   0.00006   0.00000   0.00038   0.00038   2.10668
   A12        2.05106  -0.00011   0.00000  -0.00091  -0.00091   2.05015
    D1        3.14159   0.00000   0.00000   0.00000   0.00000   3.14159
    D2        0.00000   0.00000   0.00000   0.00000   0.00000   0.00000
    D3        0.00000   0.00000   0.00000   0.00000   0.00000   0.00000
    D4        3.14159   0.00000   0.00000   0.00000   0.00000   3.14159
    D5        0.00000   0.00000   0.00000   0.00000   0.00000   0.00000
    D6        3.14159   0.00000   0.00000   0.00000   0.00000   3.14159
    D7        3.14159   0.00000   0.00000   0.00000   0.00000   3.14159
    D8        0.00000   0.00000   0.00000   0.00000   0.00000   0.00000
    D9        0.00000   0.00000   0.00000   0.00000   0.00000   0.00000
   D10        3.14159   0.00000   0.00000   0.00000   0.00000   3.14159
   D11        3.14159   0.00000   0.00000   0.00000   0.00000   3.14159
   D12        0.00000   0.00000   0.00000   0.00000   0.00000   0.00000
         Item               Value     Threshold  Converged?
 Maximum Force            0.000205     0.000450     YES
 RMS     Force            0.000085     0.000300     YES
 Maximum Displacement     0.001453     0.001800     YES
 RMS     Displacement     0.000620     0.001200     YES
 Predicted change in Energy=-5.642592D-07
 Optimization completed.
    -- Stationary point found.
                           ----------------------------
                           !   Optimized Parameters   !
                           ! (Angstroms and Degrees)  !
 --------------------------                            --------------------------
 ! Name  Definition              Value          Derivative Info.                !
 --------------------------------------------------------------------------------
 ! R1    R(1,2)                  1.3149         -DE/DX =   -0.0001              !
 ! R2    R(1,8)                  1.721          -DE/DX =    0.0                 !
 ! R3    R(1,9)                  1.0671         -DE/DX =    0.0                 !
 ! R4    R(2,3)                  1.461          -DE/DX =   -0.0001              !
 ! R5    R(2,10)                 1.3142         -DE/DX =    0.0002              !
 ! R6    R(3,4)                  1.0734         -DE/DX =   -0.0001              !
 ! R7    R(3,5)                  1.3172         -DE/DX =    0.0001              !
 ! R8    R(5,6)                  1.0721         -DE/DX =    0.0                 !
 ! R9    R(5,7)                  1.0723         -DE/DX =    0.0001              !
 ! A1    A(2,1,8)              123.6616         -DE/DX =    0.0001              !
 ! A2    A(2,1,9)              121.0705         -DE/DX =   -0.0002              !
 ! A3    A(8,1,9)              115.2679         -DE/DX =    0.0001              !
 ! A4    A(1,2,3)              123.882          -DE/DX =    0.0002              !
 ! A5    A(1,2,10)             120.86           -DE/DX =    0.0                 !
 ! A6    A(3,2,10)             115.258          -DE/DX =   -0.0002              !
 ! A7    A(2,3,4)              115.374          -DE/DX =    0.0001              !
 ! A8    A(2,3,5)              123.8177         -DE/DX =    0.0                 !
 ! A9    A(4,3,5)              120.8083         -DE/DX =    0.0                 !
 ! A10   A(3,5,6)              121.8009         -DE/DX =    0.0001              !
 ! A11   A(3,5,7)              120.682          -DE/DX =    0.0001              !
 ! A12   A(6,5,7)              117.5171         -DE/DX =   -0.0001              !
 ! D1    D(8,1,2,3)            180.0            -DE/DX =    0.0                 !
 ! D2    D(8,1,2,10)             0.0            -DE/DX =    0.0                 !
 ! D3    D(9,1,2,3)              0.0            -DE/DX =    0.0                 !
 ! D4    D(9,1,2,10)           180.0            -DE/DX =    0.0                 !
 ! D5    D(1,2,3,4)              0.0            -DE/DX =    0.0                 !
 ! D6    D(1,2,3,5)            180.0            -DE/DX =    0.0                 !
 ! D7    D(10,2,3,4)           180.0            -DE/DX =    0.0                 !
 ! D8    D(10,2,3,5)             0.0            -DE/DX =    0.0                 !
 ! D9    D(2,3,5,6)              0.0            -DE/DX =    0.0                 !
 ! D10   D(2,3,5,7)            180.0            -DE/DX =    0.0                 !
 ! D11   D(4,3,5,6)            180.0            -DE/DX =    0.0                 !
 ! D12   D(4,3,5,7)              0.0            -DE/DX =    0.0                 !
 --------------------------------------------------------------------------------
 GradGradGradGradGradGradGradGradGradGradGradGradGradGradGradGradGradGrad

 1\1\GINC-MALLOS69\Freq\RHF\CC-pVTZ\C4H4Cl1F1\MARLIN\26-Oct-2024\0\\#N 
 Geom=AllCheck Guess=TCheck SCRF=Check GenChk RHF/CC-pVTZ Freq\\Title C
 ard Required\\0,1\C,-2.0915758404,-1.6721833408,0.\C,-1.4025194032,-0.
 5522357707,0.\C,0.0573570967,-0.4941179383,0.\H,0.5555513508,-1.444904
 0523,0.\C,0.7463265997,0.6285071813,0.\H,0.265256671,1.5866266275,0.\H
 ,1.818499993,0.6124883701,0.\Cl,-3.8115106414,-1.7340300686,0.\H,-1.60
 16878172,-2.6202157958,0.\F,-2.0100973491,0.6130339877,0.\\Version=EM6
 4L-G09RevA.01\State=1-A'\HF=-712.8025472\RMSD=2.369e-09\RMSF=1.340e-04
 \ZeroPoint=0.0737521\Thermal=0.0796632\Dipole=1.0294281,-0.2668364,0.\
 DipoleDeriv=0.8139392,0.1196442,0.,-0.0746051,-0.146841,0.,0.,0.,-0.22
 38121,0.336344,-0.2761714,0.,0.1414119,1.1447106,0.,0.,0.,0.1833924,0.
 1989555,0.1394443,0.,-0.160938,0.0001905,0.,0.,0.,-0.1626479,0.0104819
 ,0.0136848,0.,0.050834,-0.0409624,0.,0.,0.,0.152999,-0.0751465,-0.1581
 094,0.,-0.0562336,0.009509,0.,0.,0.,-0.2630312,0.0414407,0.0729067,0.,
 0.0290412,0.0034661,0.,0.,0.,0.1614614,-0.083414,-0.018369,0.,0.021082
 4,0.0608059,0.,0.,0.,0.1453435,-0.8008755,-0.2974718,0.,0.0114687,-0.1
 060154,0.,0.,0.,-0.0487355,-0.0960415,0.0268007,0.,0.0392784,0.0735512
 ,0.,0.,0.,0.1767905,-0.3456837,0.3776411,0.,-0.0013398,-0.9984147,0.,0
 .,0.,-0.1217603\Polar=84.6322664,26.9455435,67.6350065,0.,0.,32.500808
 6\HyperPolar=208.5533048,90.122872,88.7482544,28.59227,0.,0.,0.,15.085
 5223,3.1775913,0.\PG=CS [SG(C4H4Cl1F1)]\NImag=0\\0.61817045,0.10789642
 ,0.92017771,0.,0.,0.10799705,-0.25173243,-0.21795546,0.,0.75553482,-0.
 24784126,-0.47777113,0.,0.13583314,0.94114700,0.,0.,-0.06999443,0.,0.,
 0.18288465,-0.02758744,-0.01822036,0.,-0.27773210,0.00543346,0.,0.7275
 3208,-0.03621139,0.00106652,0.,-0.00930042,-0.11134506,0.,0.10380707,0
 .94938424,0.,0.,0.01030600,0.,0.,-0.07868177,0.,0.,0.15448892,0.000040
 22,-0.00080518,0.,-0.00719998,0.03247369,0.,-0.13737207,0.12446161,0.,
 0.13936330,-0.00052651,-0.00068378,0.,-0.00231510,0.00276444,0.,0.1250
 1406,-0.30076865,0.,-0.13289140,0.32065310,0.,0.,-0.00083948,0.,0.,0.0
 0186670,0.,0.,-0.04726716,0.,0.,0.03112928,-0.00173722,0.00625708,0.,-
 0.02960347,-0.04372704,0.,-0.26712504,-0.21797670,0.,0.01469237,0.0171
 3858,0.,0.79156504,0.00617473,0.00505072,0.,-0.01838606,0.00179984,0.,
 -0.21119489,-0.50120228,0.,-0.02037905,-0.02310967,0.,0.10941377,0.896
 88677,0.,0.,0.00140176,0.,0.,0.00761702,0.,0.,-0.06532239,0.,0.,0.0080
 0418,0.,0.,0.14155931,0.00010152,0.00034929,0.,0.00076032,-0.00076534,
 0.,0.01572250,-0.01828397,0.,-0.00174543,-0.00367636,0.,-0.13345321,0.
 12819289,0.,0.12988181,-0.00012785,-0.00002051,0.,0.00241921,-0.001719
 04,0.,0.01710271,-0.02225190,0.,-0.00362414,-0.00283282,0.,0.11973882,
 -0.30988789,0.,-0.13377786,0.32866190,0.,0.,0.00031687,0.,0.,-0.008736
 46,0.,0.,0.00845895,0.,0.,0.01303612,0.,0.,-0.04725133,0.,0.,0.0294263
 5,-0.00058016,0.00002842,0.,0.00099327,-0.00195427,0.,-0.01325800,0.00
 415834,0.,0.00128191,-0.00035172,0.,-0.37358825,0.00605425,0.,-0.00874
 624,-0.00187808,0.,0.39391161,-0.00099170,0.00068257,0.,-0.00107132,-0
 .00705276,0.,-0.03480251,0.00503671,0.,0.00036676,0.00146739,0.,0.0135
 8517,-0.06852361,0.,0.02823845,0.00479371,0.,-0.00541121,0.06212372,0.
 ,0.,-0.00047258,0.,0.,0.01458023,0.,0.,0.00755842,0.,0.,-0.00929655,0.
 ,0.,-0.04510210,0.,0.,0.00473708,0.,0.,0.02889294,-0.22511182,-0.00835
 298,0.,-0.04732110,0.01186894,0.,0.00582847,-0.00543866,0.,0.00031690,
 0.00037529,0.,-0.00367463,-0.00023259,0.,-0.00002202,-0.00003568,0.,-0
 .00027154,-0.00052546,0.,0.28931088,-0.00081102,-0.04783730,0.,-0.0271
 1194,0.00388558,0.,0.00082336,-0.00372341,0.,-0.00020693,0.00030716,0.
 ,-0.00145380,0.00036302,0.,0.00005358,0.00007219,0.,-0.00015564,-0.000
 26587,0.,0.01330980,0.03578218,0.,0.,-0.02457811,0.,0.,0.00893841,0.,0
 .,0.00843623,0.,0.,-0.00019973,0.,0.,-0.00001652,0.,0.,0.00030360,0.,0
 .,-0.00112860,0.,0.,0.01209771,-0.12101982,0.13780416,0.,0.01423968,-0
 .01319031,0.,-0.00042930,-0.00095143,0.,-0.00053728,-0.00091227,0.,0.0
 0011470,0.00023792,0.,0.00007202,0.00001235,0.,-0.00002956,0.00000401,
 0.,-0.02621317,0.01960301,0.,0.13514121,0.12757996,-0.32812986,0.,0.01
 847244,-0.01527093,0.,0.00125388,0.00013302,0.,-0.00085041,0.00055668,
 0.,-0.00039075,0.00028895,0.,0.00012386,0.00015720,0.,-0.00001808,-0.0
 0001749,0.,-0.00681782,0.00815102,0.,-0.13614661,0.33784248,0.,0.,-0.0
 3613910,0.,0.,0.00015124,0.,0.,-0.00565847,0.,0.,0.00042224,0.,0.,0.00
 000429,0.,0.,0.00015206,0.,0.,0.00044698,0.,0.,0.00269957,0.,0.,0.0252
 5469,0.00945669,-0.00700138,0.,-0.15793902,0.12186898,0.,-0.02557910,0
 .05573554,0.,-0.00883993,-0.00185456,0.,0.00280971,0.00011904,0.,-0.00
 257129,0.00017054,0.,0.00028696,0.00060780,0.,0.00715803,-0.00405043,0
 .,-0.00133849,-0.00320646,0.,0.17655645,0.04485863,-0.07253494,0.,0.11
 941551,-0.33643793,0.,0.01078323,-0.01632919,0.,0.00145507,0.00164615,
 0.,-0.00258514,-0.00166584,0.,-0.00045455,0.00302718,0.,-0.00047201,0.
 00175564,0.,-0.00415083,0.00326543,0.,-0.00646083,-0.00371106,0.,-0.16
 238908,0.42098456,0.,0.,0.01200201,0.,0.,-0.05862559,0.,0.,0.00768126,
 0.,0.,0.00314440,0.,0.,-0.00089424,0.,0.,-0.00044324,0.,0.,-0.00021583
 ,0.,0.,-0.00655255,0.,0.,0.01266651,0.,0.,0.03123728\\0.00022344,-0.00
 010093,0.,-0.00030801,0.00047184,0.,0.00019614,0.00015076,0.,0.0000205
 7,-0.00011839,0.,0.00006862,0.00001289,0.,-0.00007002,-0.00004780,0.,-
 0.00006565,-0.00008410,0.,-0.00000697,-0.00000947,0.,-0.00011060,-0.00
 007102,0.,0.00005248,-0.00020378,0.\\\@


 GOOD SENSE ABOUT TRIVIALITIES IS BETTER THAN NONSENSE
 ABOUT THINGS THAT MATTER

                                       -- MAX BEERBOHM
 Job cpu time:  0 days  0 hours 15 minutes 39.2 seconds.
 File lengths (MBytes):  RWF=     53 Int=      0 D2E=      0 Chk=      5 Scr=      1
 Normal termination of Gaussian 09 at Sat Oct 26 20:15:31 2024.
