 Entering Gaussian System, Link 0=g09
 Initial command:
 /u/local/G09/g09/l1.exe /tmp/marlin/23005.mallos00.local/Gau-28748.inp -scrdir=/tmp/marlin/23005.mallos00.local/
 Entering Link 1 = /u/local/G09/g09/l1.exe PID=     28749.
  
 Copyright (c) 1988,1990,1992,1993,1995,1998,2003,2009, Gaussian, Inc.
                  All Rights Reserved.
  
 This is part of the Gaussian(R) 09 program.  It is based on
 the Gaussian(R) 03 system (copyright 2003, Gaussian, Inc.),
 the Gaussian(R) 98 system (copyright 1998, Gaussian, Inc.),
 the Gaussian(R) 94 system (copyright 1995, Gaussian, Inc.),
 the Gaussian 92(TM) system (copyright 1992, Gaussian, Inc.),
 the Gaussian 90(TM) system (copyright 1990, Gaussian, Inc.),
 the Gaussian 88(TM) system (copyright 1988, Gaussian, Inc.),
 the Gaussian 86(TM) system (copyright 1986, Carnegie Mellon
 University), and the Gaussian 82(TM) system (copyright 1983,
 Carnegie Mellon University). Gaussian is a federally registered
 trademark of Gaussian, Inc.
  
 This software contains proprietary and confidential information,
 including trade secrets, belonging to Gaussian, Inc.
  
 This software is provided under written license and may be
 used, copied, transmitted, or stored only in accord with that
 written license.
  
 The following legend is applicable only to US Government
 contracts under FAR:
  
                    RESTRICTED RIGHTS LEGEND
  
 Use, reproduction and disclosure by the US Government is
 subject to restrictions as set forth in subparagraphs (a)
 and (c) of the Commercial Computer Software - Restricted
 Rights clause in FAR 52.227-19.
  
 Gaussian, Inc.
 340 Quinnipiac St., Bldg. 40, Wallingford CT 06492
  
  
 ---------------------------------------------------------------
 Warning -- This program may not be used in any manner that
 competes with the business of Gaussian, Inc. or will provide
 assistance to any competitor of Gaussian, Inc.  The licensee
 of this program is prohibited from giving any competitor of
 Gaussian, Inc. access to this program.  By using this program,
 the user acknowledges that Gaussian, Inc. is engaged in the
 business of creating and licensing software in the field of
 computational chemistry and represents and warrants to the
 licensee that it is not a competitor of Gaussian, Inc. and that
 it will not use this program in any manner prohibited above.
 ---------------------------------------------------------------
  

 Cite this work as:
 Gaussian 09, Revision A.01,
 M. J. Frisch, G. W. Trucks, H. B. Schlegel, G. E. Scuseria, 
 M. A. Robb, J. R. Cheeseman, G. Scalmani, V. Barone, B. Mennucci, 
 G. A. Petersson, H. Nakatsuji, M. Caricato, X. Li, H. P. Hratchian, 
 A. F. Izmaylov, J. Bloino, G. Zheng, J. L. Sonnenberg, M. Hada, 
 M. Ehara, K. Toyota, R. Fukuda, J. Hasegawa, M. Ishida, T. Nakajima, 
 Y. Honda, O. Kitao, H. Nakai, T. Vreven, J. A. Montgomery, Jr., 
 J. E. Peralta, F. Ogliaro, M. Bearpark, J. J. Heyd, E. Brothers, 
 K. N. Kudin, V. N. Staroverov, R. Kobayashi, J. Normand, 
 K. Raghavachari, A. Rendell, J. C. Burant, S. S. Iyengar, J. Tomasi, 
 M. Cossi, N. Rega, J. M. Millam, M. Klene, J. E. Knox, J. B. Cross, 
 V. Bakken, C. Adamo, J. Jaramillo, R. Gomperts, R. E. Stratmann, 
 O. Yazyev, A. J. Austin, R. Cammi, C. Pomelli, J. W. Ochterski, 
 R. L. Martin, K. Morokuma, V. G. Zakrzewski, G. A. Voth, 
 P. Salvador, J. J. Dannenberg, S. Dapprich, A. D. Daniels, 
 O. Farkas, J. B. Foresman, J. V. Ortiz, J. Cioslowski, 
 and D. J. Fox, Gaussian, Inc., Wallingford CT, 2009.
 
 ******************************************
 Gaussian 09:  EM64L-G09RevA.01  8-May-2009
                26-Oct-2024 
 ******************************************
 %mem=103GB
 %nproc=20
 Will use up to   20 processors via shared memory.
 %chk=3-base4.chk
 -----------------------------------------------
 # opt freq=noraman hf/cc-pvdz geom=connectivity
 -----------------------------------------------
 1/18=20,19=15,38=1,57=2/1,3;
 2/9=110,12=2,17=6,18=5,40=1/2;
 3/5=16,11=9,16=1,25=1,30=1,71=1/1,2,3;
 4//1;
 5/5=2,38=5/2;
 6/7=2,8=2,9=2,10=2,28=1/1;
 7//1,2,3,16;
 1/18=20,19=15/3(2);
 2/9=110/2;
 99//99;
 2/9=110/2;
 3/5=16,11=9,16=1,25=1,30=1,71=1/1,2,3;
 4/5=5,16=3/1;
 5/5=2,38=5/2;
 7//1,2,3,16;
 1/18=20,19=15/3(-5);
 2/9=110/2;
 6/7=2,8=2,9=2,10=2,19=2,28=1/1;
 99/9=1/99;
 -------------------
 Title Card Required
 -------------------
 Symbolic Z-matrix:
 Charge =  0 Multiplicity = 1
 C                    -2.1124   -1.70543   0. 
 C                    -1.43713  -0.53045   0. 
 C                     0.10287  -0.53045   0. 
 H                     0.63603  -1.45815   0. 
 C                     0.78511   0.6405    0. 
 H                     0.25747   1.57135   0. 
 H                     1.8551    0.63414   0. 
 Cl                   -3.8724   -1.70543   0. 
 H                    -1.57924  -2.63313   0. 
 F                    -2.10981   0.64002   0. 
 

 GradGradGradGradGradGradGradGradGradGradGradGradGradGradGradGradGradGrad
 Berny optimization.
 Initialization pass.
                           ----------------------------
                           !    Initial Parameters    !
                           ! (Angstroms and Degrees)  !
 --------------------------                            --------------------------
 ! Name  Definition              Value          Derivative Info.                !
 --------------------------------------------------------------------------------
 ! R1    R(1,2)                  1.3552         estimate D2E/DX2                !
 ! R2    R(1,8)                  1.76           estimate D2E/DX2                !
 ! R3    R(1,9)                  1.07           estimate D2E/DX2                !
 ! R4    R(2,3)                  1.54           estimate D2E/DX2                !
 ! R5    R(2,10)                 1.35           estimate D2E/DX2                !
 ! R6    R(3,4)                  1.07           estimate D2E/DX2                !
 ! R7    R(3,5)                  1.3552         estimate D2E/DX2                !
 ! R8    R(5,6)                  1.07           estimate D2E/DX2                !
 ! R9    R(5,7)                  1.07           estimate D2E/DX2                !
 ! A1    A(2,1,8)              119.8865         estimate D2E/DX2                !
 ! A2    A(2,1,9)              120.2269         estimate D2E/DX2                !
 ! A3    A(8,1,9)              119.8865         estimate D2E/DX2                !
 ! A4    A(1,2,3)              119.8865         estimate D2E/DX2                !
 ! A5    A(1,2,10)             120.2269         estimate D2E/DX2                !
 ! A6    A(3,2,10)             119.8865         estimate D2E/DX2                !
 ! A7    A(2,3,4)              119.8865         estimate D2E/DX2                !
 ! A8    A(2,3,5)              120.2269         estimate D2E/DX2                !
 ! A9    A(4,3,5)              119.8865         estimate D2E/DX2                !
 ! A10   A(3,5,6)              120.2269         estimate D2E/DX2                !
 ! A11   A(3,5,7)              119.8865         estimate D2E/DX2                !
 ! A12   A(6,5,7)              119.8865         estimate D2E/DX2                !
 ! D1    D(8,1,2,3)            180.0            estimate D2E/DX2                !
 ! D2    D(8,1,2,10)             0.0            estimate D2E/DX2                !
 ! D3    D(9,1,2,3)              0.0            estimate D2E/DX2                !
 ! D4    D(9,1,2,10)           180.0            estimate D2E/DX2                !
 ! D5    D(1,2,3,4)              0.0            estimate D2E/DX2                !
 ! D6    D(1,2,3,5)            180.0            estimate D2E/DX2                !
 ! D7    D(10,2,3,4)           180.0            estimate D2E/DX2                !
 ! D8    D(10,2,3,5)             0.0            estimate D2E/DX2                !
 ! D9    D(2,3,5,6)              0.0            estimate D2E/DX2                !
 ! D10   D(2,3,5,7)            180.0            estimate D2E/DX2                !
 ! D11   D(4,3,5,6)            180.0            estimate D2E/DX2                !
 ! D12   D(4,3,5,7)              0.0            estimate D2E/DX2                !
 --------------------------------------------------------------------------------
 Trust Radius=3.00D-01 FncErr=1.00D-07 GrdErr=1.00D-07
 Number of steps in this run=  43 maximum allowed number of steps= 100.
 GradGradGradGradGradGradGradGradGradGradGradGradGradGradGradGradGradGrad

                          Input orientation:                          
 ---------------------------------------------------------------------
 Center     Atomic      Atomic             Coordinates (Angstroms)
 Number     Number       Type             X           Y           Z
 ---------------------------------------------------------------------
      1          6           0       -2.112403   -1.705426    0.000000
      2          6           0       -1.437129   -0.530449    0.000000
      3          6           0        0.102871   -0.530449    0.000000
      4          1           0        0.636035   -1.458154    0.000000
      5          6           0        0.785114    0.640495    0.000000
      6          1           0        0.257472    1.571352    0.000000
      7          1           0        1.855096    0.634138    0.000000
      8         17           0       -3.872403   -1.705426    0.000000
      9          1           0       -1.579240   -2.633131    0.000000
     10          9           0       -2.109812    0.640020    0.000000
 ---------------------------------------------------------------------
                    Distance matrix (angstroms):
                    1          2          3          4          5
     1  C    0.000000
     2  C    1.355200   0.000000
     3  C    2.507591   1.540000   0.000000
     4  H    2.759539   2.271265   1.070000   0.000000
     5  C    3.728131   2.511867   1.355200   2.103938   0.000000
     6  H    4.043956   2.699859   2.107479   3.053066   1.070000
     7  H    4.605932   3.492135   2.103938   2.421527   1.070000
     8  Cl   1.760000   2.703911   4.145284   4.515214   5.214961
     9  H    1.070000   2.107479   2.692725   2.507591   4.038168
    10  F    2.345448   1.350000   2.503191   3.455721   2.894927
                    6          7          8          9         10
     6  H    0.000000
     7  H    1.852234   0.000000
     8  Cl   5.271920   6.186906   0.000000
     9  H    4.588157   4.740222   2.473709   0.000000
    10  F    2.543897   3.964912   2.933913   3.315875   0.000000
 Stoichiometry    C4H4ClF
 Framework group  CS[SG(C4H4ClF)]
 Deg. of freedom    17
 Full point group                 CS      NOp   2
 Largest Abelian subgroup         CS      NOp   2
 Largest concise Abelian subgroup C1      NOp   1
                         Standard orientation:                         
 ---------------------------------------------------------------------
 Center     Atomic      Atomic             Coordinates (Angstroms)
 Number     Number       Type             X           Y           Z
 ---------------------------------------------------------------------
      1          6           0        1.004077   -0.267605    0.000000
      2          6           0       -0.170900    0.407669    0.000000
      3          6           0       -0.170900    1.947669    0.000000
      4          1           0        0.756805    2.480833    0.000000
      5          6           0       -1.341844    2.629912    0.000000
      6          1           0       -2.272701    2.102270    0.000000
      7          1           0       -1.335487    3.699893    0.000000
      8         17           0        1.004077   -2.027605    0.000000
      9          1           0        1.931782    0.265558    0.000000
     10          9           0       -1.341369   -0.265014    0.000000
 ---------------------------------------------------------------------
 Rotational constants (GHZ):      9.2917918      1.4010922      1.2175066
 Standard basis: CC-pVDZ (5D, 7F)
 There are    79 symmetry adapted basis functions of A'  symmetry.
 There are    29 symmetry adapted basis functions of A"  symmetry.
 Integral buffers will be    131072 words long.
 Raffenetti 1 integral format.
 Two-electron integral symmetry is turned on.
   108 basis functions,   264 primitive gaussians,   114 cartesian basis functions
    27 alpha electrons       27 beta electrons
       nuclear repulsion energy       258.7779846651 Hartrees.
 NAtoms=   10 NActive=   10 NUniq=   10 SFac= 7.50D-01 NAtFMM=   80 NAOKFM=F Big=F
 One-electron integrals computed using PRISM.
 NBasis=   108 RedAO= T  NBF=    79    29
 NBsUse=   108 1.00D-06 NBFU=    79    29
 Harris functional with IExCor=  205 diagonalized for initial guess.
 ExpMin= 1.22D-01 ExpMax= 1.28D+05 ExpMxC= 1.24D+03 IAcc=2 IRadAn=         0 AccDes= 0.00D+00
 HarFok:  IExCor=  205 AccDes= 0.00D+00 IRadAn=         0 IDoV= 1
 ScaDFX=  1.000000  1.000000  1.000000  1.000000
 FoFCou: FMM=F IPFlag=           0 FMFlag=      100000 FMFlg1=           0
         NFxFlg=           0 DoJE=T BraDBF=F KetDBF=T FulRan=T
         Omega=  0.000000  0.000000  1.000000  0.000000  0.000000 ICntrl=     500 IOpCl=  0
         NMat0=    1 NMatS0=    1 NMatT0=    0 NMatD0=    1 NMtDS0=    0 NMtDT0=    0
         I1Cent=           4 NGrid=           0.
 Petite list used in FoFCou.
 Initial guess orbital symmetries:
       Occupied  (A') (A') (A') (A') (A') (A') (A') (A') (A') (A")
                 (A') (A') (A') (A') (A') (A') (A') (A') (A') (A")
                 (A') (A') (A') (A") (A") (A') (A")
       Virtual   (A") (A') (A") (A') (A') (A') (A') (A') (A') (A')
                 (A') (A') (A') (A") (A') (A") (A') (A') (A') (A')
                 (A") (A") (A') (A") (A') (A') (A') (A") (A') (A")
                 (A') (A') (A') (A") (A') (A") (A') (A") (A') (A')
                 (A") (A') (A') (A") (A') (A') (A") (A') (A') (A')
                 (A") (A') (A') (A') (A') (A") (A") (A') (A") (A')
                 (A") (A') (A') (A") (A') (A') (A") (A') (A') (A')
                 (A') (A') (A') (A') (A') (A') (A") (A') (A") (A')
                 (A')
 The electronic state of the initial guess is 1-A'.
 Requested convergence on RMS density matrix=1.00D-08 within 128 cycles.
 Requested convergence on MAX density matrix=1.00D-06.
 Requested convergence on             energy=1.00D-06.
 No special actions if energy rises.
 Keep R1 ints in memory in canonical form, NReq=22367630.
 SCF Done:  E(RHF) =  -712.698234139     A.U. after   14 cycles
             Convg  =    0.3387D-08             -V/T =  2.0006

 **********************************************************************

            Population analysis using the SCF density.

 **********************************************************************

 Orbital symmetries:
       Occupied  (A') (A') (A') (A') (A') (A') (A') (A') (A') (A")
                 (A') (A') (A') (A') (A') (A') (A') (A") (A') (A')
                 (A') (A') (A') (A") (A') (A") (A")
       Virtual   (A") (A') (A') (A") (A') (A') (A') (A') (A') (A')
                 (A') (A') (A') (A") (A') (A') (A") (A') (A') (A')
                 (A") (A") (A") (A') (A') (A') (A') (A") (A') (A')
                 (A") (A') (A') (A') (A") (A') (A") (A') (A") (A')
                 (A") (A') (A') (A') (A") (A') (A") (A') (A') (A')
                 (A") (A') (A') (A') (A") (A') (A") (A') (A") (A')
                 (A") (A') (A") (A') (A') (A') (A") (A') (A') (A')
                 (A') (A') (A') (A') (A') (A') (A") (A') (A") (A')
                 (A')
 The electronic state is 1-A'.
 Alpha  occ. eigenvalues -- -104.83858 -26.33105 -11.36364 -11.30926 -11.28003
 Alpha  occ. eigenvalues --  -11.26122 -10.56429  -8.03194  -8.02841  -8.02836
 Alpha  occ. eigenvalues --   -1.64275  -1.15474  -1.08638  -1.00292  -0.83652
 Alpha  occ. eigenvalues --   -0.80918  -0.73708  -0.70361  -0.68151  -0.63674
 Alpha  occ. eigenvalues --   -0.60677  -0.56998  -0.53162  -0.50698  -0.45465
 Alpha  occ. eigenvalues --   -0.43393  -0.33584
 Alpha virt. eigenvalues --    0.09876   0.17532   0.19220   0.21700   0.22284
 Alpha virt. eigenvalues --    0.24168   0.26730   0.35821   0.40191   0.43329
 Alpha virt. eigenvalues --    0.51460   0.59842   0.61817   0.64966   0.67455
 Alpha virt. eigenvalues --    0.69263   0.70999   0.71066   0.74193   0.75510
 Alpha virt. eigenvalues --    0.76145   0.78914   0.80507   0.80581   0.86211
 Alpha virt. eigenvalues --    0.89076   0.92078   0.92958   0.93567   0.97136
 Alpha virt. eigenvalues --    0.98132   0.99531   1.03781   1.09614   1.10516
 Alpha virt. eigenvalues --    1.17798   1.20700   1.20831   1.22551   1.25001
 Alpha virt. eigenvalues --    1.32851   1.34061   1.38561   1.43905   1.47887
 Alpha virt. eigenvalues --    1.48604   1.61855   1.63196   1.68009   1.71225
 Alpha virt. eigenvalues --    1.72927   1.76965   1.82557   1.86742   1.88748
 Alpha virt. eigenvalues --    1.90063   1.91595   1.94662   1.99547   2.03701
 Alpha virt. eigenvalues --    2.13311   2.15738   2.19816   2.19989   2.32089
 Alpha virt. eigenvalues --    2.35402   2.37030   2.41873   2.51080   2.57878
 Alpha virt. eigenvalues --    2.72141   2.78541   2.83377   2.94811   3.11418
 Alpha virt. eigenvalues --    3.33499   3.97316   3.98934   4.17966   4.37662
 Alpha virt. eigenvalues --    4.54982
          Condensed to atoms (all electrons):
              1          2          3          4          5          6
     1  C    5.067070   0.526710  -0.086871  -0.001759   0.004088   0.001070
     2  C    0.526710   4.606259   0.382592  -0.030664  -0.075246  -0.012923
     3  C   -0.086871   0.382592   4.845064   0.419661   0.683086  -0.019766
     4  H   -0.001759  -0.030664   0.419661   0.588581  -0.020784   0.005829
     5  C    0.004088  -0.075246   0.683086  -0.020784   4.562080   0.413463
     6  H    0.001070  -0.012923  -0.019766   0.005829   0.413463   0.572353
     7  H   -0.000178   0.004534  -0.018757  -0.008864   0.407291  -0.032031
     8  Cl   0.261767  -0.092486   0.003101  -0.000027  -0.000124  -0.000015
     9  H    0.421518  -0.019862  -0.003796   0.000938   0.000285  -0.000029
    10  F   -0.053317   0.339008  -0.040729   0.001162   0.003487   0.006618
              7          8          9         10
     1  C   -0.000178   0.261767   0.421518  -0.053317
     2  C    0.004534  -0.092486  -0.019862   0.339008
     3  C   -0.018757   0.003101  -0.003796  -0.040729
     4  H   -0.008864  -0.000027   0.000938   0.001162
     5  C    0.407291  -0.000124   0.000285   0.003487
     6  H   -0.032031  -0.000015  -0.000029   0.006618
     7  H    0.589302   0.000002  -0.000009   0.000056
     8  Cl   0.000002  16.930638  -0.029253   0.001056
     9  H   -0.000009  -0.029253   0.546666   0.001757
    10  F    0.000056   0.001056   0.001757   9.008809
 Mulliken atomic charges:
              1
     1  C   -0.140097
     2  C    0.372078
     3  C   -0.163585
     4  H    0.045924
     5  C    0.022372
     6  H    0.065431
     7  H    0.058655
     8  Cl  -0.074658
     9  H    0.081785
    10  F   -0.267906
 Sum of Mulliken atomic charges =   0.00000
 Mulliken charges with hydrogens summed into heavy atoms:
              1
     1  C   -0.058312
     2  C    0.372078
     3  C   -0.117661
     5  C    0.146459
     8  Cl  -0.074658
    10  F   -0.267906
 Sum of Mulliken charges with hydrogens summed into heavy atoms =   0.00000
 Electronic spatial extent (au):  <R**2>=            884.7154
 Charge=              0.0000 electrons
 Dipole moment (field-independent basis, Debye):
    X=              0.7302    Y=              3.0488    Z=              0.0000  Tot=              3.1351
 Quadrupole moment (field-independent basis, Debye-Ang):
   XX=            -39.3739   YY=            -38.3573   ZZ=            -44.3433
   XY=              0.2792   XZ=              0.0000   YZ=              0.0000
 Traceless Quadrupole moment (field-independent basis, Debye-Ang):
   XX=              1.3176   YY=              2.3342   ZZ=             -3.6518
   XY=              0.2792   XZ=              0.0000   YZ=              0.0000
 Octapole moment (field-independent basis, Debye-Ang**2):
  XXX=             -5.3779  YYY=              5.1641  ZZZ=              0.0000  XYY=             -7.1860
  XXY=              4.9848  XXZ=              0.0000  XZZ=             -2.2295  YZZ=             -7.4660
  YYZ=              0.0000  XYZ=              0.0000
 Hexadecapole moment (field-independent basis, Debye-Ang**3):
 XXXX=           -287.7945 YYYY=           -711.0871 ZZZZ=            -47.0622 XXXY=            151.2481
 XXXZ=              0.0000 YYYX=            139.9670 YYYZ=              0.0000 ZZZX=              0.0000
 ZZZY=              0.0000 XXYY=           -174.7526 XXZZ=            -61.2829 YYZZ=           -153.5508
 XXYZ=              0.0000 YYXZ=              0.0000 ZZXY=             55.5016
 N-N= 2.587779846651D+02 E-N=-2.207683425675D+03  KE= 7.122669492078D+02
 Symmetry A'   KE= 6.560860983499D+02
 Symmetry A"   KE= 5.618085085783D+01
 Calling FoFJK, ICntrl=      2127 FMM=F ISym2X=1 I1Cent= 0 IOpClX= 0 NMat=1 NMatS=1 NMatT=0.
 ***** Axes restored to original set *****
 -------------------------------------------------------------------
 Center     Atomic                   Forces (Hartrees/Bohr)
 Number     Number              X              Y              Z
 -------------------------------------------------------------------
      1        6           0.001643215    0.055306407    0.000000000
      2        6           0.008102288   -0.037826549    0.000000000
      3        6          -0.027697805    0.064166250    0.000000000
      4        1          -0.004017934   -0.011120846    0.000000000
      5        6          -0.024807488   -0.043368627    0.000000000
      6        1          -0.001752563    0.009009392    0.000000000
      7        1           0.008897106    0.002449473    0.000000000
      8       17           0.015885912   -0.007025422    0.000000000
      9        1          -0.003399960   -0.007621319    0.000000000
     10        9           0.027147229   -0.023968760    0.000000000
 -------------------------------------------------------------------
 Cartesian Forces:  Max     0.064166250 RMS     0.021548992

 GradGradGradGradGradGradGradGradGradGradGradGradGradGradGradGradGradGrad
 Berny optimization.
 Internal  Forces:  Max     0.049378684 RMS     0.016195080
 Search for a local minimum.
 Step number   1 out of a maximum of   43
 All quantities printed in internal units (Hartrees-Bohrs-Radians)
 Mixed Optimization -- RFO/linear search
 Second derivative matrix not updated -- first step.
     Eigenvalues ---    0.00237   0.01459   0.01463   0.02681   0.02681
     Eigenvalues ---    0.02681   0.02681   0.16000   0.16000   0.16000
     Eigenvalues ---    0.16000   0.22000   0.22000   0.25000   0.25000
     Eigenvalues ---    0.28519   0.29539   0.37230   0.37230   0.37230
     Eigenvalues ---    0.37230   0.53930   0.53930   0.550211000.00000
     Eigenvalues --- 1000.000001000.000001000.000001000.000001000.00000
     Eigenvalues --- 1000.000001000.000001000.00000
 RFO step:  Lambda=-2.27935479D-02 EMin= 2.36824121D-03
 Linear search not attempted -- first point.
 Iteration  1 RMS(Cart)=  0.06322950 RMS(Int)=  0.00125369
 Iteration  2 RMS(Cart)=  0.00171361 RMS(Int)=  0.00000102
 Iteration  3 RMS(Cart)=  0.00000156 RMS(Int)=  0.00000000
 Iteration  4 RMS(Cart)=  0.00000000 RMS(Int)=  0.00000000
 ClnCor:  largest displacement from symmetrization is 4.97D-16 for atom     7.
 Variable       Old X    -DE/DX   Delta X   Delta X   Delta X     New X
                                 (Linear)    (Quad)   (Total)
    R1        2.56096  -0.04229   0.00000  -0.07524  -0.07524   2.48571
    R2        3.32592  -0.01589   0.00000  -0.04993  -0.04993   3.27599
    R3        2.02201   0.00491   0.00000   0.01244   0.01244   2.03444
    R4        2.91018  -0.04938   0.00000  -0.16033  -0.16033   2.74985
    R5        2.55113  -0.03431   0.00000  -0.05987  -0.05987   2.49126
    R6        2.02201   0.00764   0.00000   0.01934   0.01934   2.04134
    R7        2.56096  -0.03646   0.00000  -0.06487  -0.06487   2.49609
    R8        2.02201   0.00870   0.00000   0.02203   0.02203   2.04403
    R9        2.02201   0.00888   0.00000   0.02248   0.02248   2.04449
    A1        2.09241   0.01103   0.00000   0.04543   0.04543   2.13785
    A2        2.09836   0.00130   0.00000   0.01459   0.01459   2.11295
    A3        2.09241  -0.01234   0.00000  -0.06002  -0.06002   2.03239
    A4        2.09241   0.01705   0.00000   0.06250   0.06250   2.15492
    A5        2.09836   0.00626   0.00000   0.02296   0.02296   2.12132
    A6        2.09241  -0.02331   0.00000  -0.08546  -0.08546   2.00695
    A7        2.09241  -0.01313   0.00000  -0.06642  -0.06642   2.02600
    A8        2.09836   0.00801   0.00000   0.03301   0.03301   2.13136
    A9        2.09241   0.00512   0.00000   0.03341   0.03341   2.12583
   A10        2.09836   0.00225   0.00000   0.01229   0.01229   2.11065
   A11        2.09241   0.00141   0.00000   0.00769   0.00769   2.10011
   A12        2.09241  -0.00365   0.00000  -0.01999  -0.01999   2.07243
    D1        3.14159   0.00000   0.00000   0.00000   0.00000   3.14159
    D2        0.00000   0.00000   0.00000   0.00000   0.00000   0.00000
    D3        0.00000   0.00000   0.00000   0.00000   0.00000   0.00000
    D4        3.14159   0.00000   0.00000   0.00000   0.00000   3.14159
    D5        0.00000   0.00000   0.00000   0.00000   0.00000   0.00000
    D6        3.14159   0.00000   0.00000   0.00000   0.00000   3.14159
    D7        3.14159   0.00000   0.00000   0.00000   0.00000   3.14159
    D8        0.00000   0.00000   0.00000   0.00000   0.00000   0.00000
    D9        0.00000   0.00000   0.00000   0.00000   0.00000   0.00000
   D10        3.14159   0.00000   0.00000   0.00000   0.00000   3.14159
   D11        3.14159   0.00000   0.00000   0.00000   0.00000   3.14159
   D12        0.00000   0.00000   0.00000   0.00000   0.00000   0.00000
         Item               Value     Threshold  Converged?
 Maximum Force            0.049379     0.000450     NO 
 RMS     Force            0.016195     0.000300     NO 
 Maximum Displacement     0.239150     0.001800     NO 
 RMS     Displacement     0.063860     0.001200     NO 
 Predicted change in Energy=-1.217194D-02
 GradGradGradGradGradGradGradGradGradGradGradGradGradGradGradGradGradGrad

                          Input orientation:                          
 ---------------------------------------------------------------------
 Center     Atomic      Atomic             Coordinates (Angstroms)
 Number     Number       Type             X           Y           Z
 ---------------------------------------------------------------------
      1          6           0       -2.083088   -1.673154    0.000000
      2          6           0       -1.390840   -0.554661    0.000000
      3          6           0        0.063667   -0.511143    0.000000
      4          1           0        0.567385   -1.466742    0.000000
      5          6           0        0.732159    0.628077    0.000000
      6          1           0        0.213312    1.577169    0.000000
      7          1           0        1.814054    0.626622    0.000000
      8         17           0       -3.816525   -1.695418    0.000000
      9          1           0       -1.591265   -2.630827    0.000000
     10          9           0       -1.983260    0.623047    0.000000
 ---------------------------------------------------------------------
                    Distance matrix (angstroms):
                    1          2          3          4          5
     1  C    0.000000
     2  C    1.315384   0.000000
     3  C    2.441070   1.455157   0.000000
     4  H    2.658498   2.160217   1.080233   0.000000
     5  C    3.636107   2.430225   1.320872   2.101289   0.000000
     6  H    3.979705   2.667959   2.093667   3.064435   1.081655
     7  H    4.525118   3.415667   2.087670   2.436464   1.081897
     8  Cl   1.733580   2.680536   4.056894   4.389870   5.107754
     9  H    1.076581   2.085818   2.689212   2.452522   4.002343
    10  F    2.298370   1.318316   2.340148   3.297424   2.715423
                    6          7          8          9         10
     6  H    0.000000
     7  H    1.861697   0.000000
     8  Cl   5.191282   6.090591   0.000000
     9  H    4.578617   4.712449   2.413871   0.000000
    10  F    2.394844   3.797316   2.955696   3.277401   0.000000
 Stoichiometry    C4H4ClF
 Framework group  CS[SG(C4H4ClF)]
 Deg. of freedom    17
 Full point group                 CS      NOp   2
 Largest Abelian subgroup         CS      NOp   2
 Largest concise Abelian subgroup C1      NOp   1
                         Standard orientation:                         
 ---------------------------------------------------------------------
 Center     Atomic      Atomic             Coordinates (Angstroms)
 Number     Number       Type             X           Y           Z
 ---------------------------------------------------------------------
      1          6           0       -0.831811   -0.574529    0.000000
      2          6           0        0.000000    0.444453    0.000000
      3          6           0       -0.432900    1.833726    0.000000
      4          1           0       -1.500492    1.998499    0.000000
      5          6           0        0.426247    2.837005    0.000000
      6          1           0        1.492618    2.655809    0.000000
      7          1           0        0.072268    3.859355    0.000000
      8         17           0       -0.287910   -2.220576    0.000000
      9          1           0       -1.897486   -0.421678    0.000000
     10          9           0        1.306482    0.268210    0.000000
 ---------------------------------------------------------------------
 Rotational constants (GHZ):     10.0913674      1.4501145      1.2679168
 Standard basis: CC-pVDZ (5D, 7F)
 There are    79 symmetry adapted basis functions of A'  symmetry.
 There are    29 symmetry adapted basis functions of A"  symmetry.
 Integral buffers will be    131072 words long.
 Raffenetti 1 integral format.
 Two-electron integral symmetry is turned on.
   108 basis functions,   264 primitive gaussians,   114 cartesian basis functions
    27 alpha electrons       27 beta electrons
       nuclear repulsion energy       264.5896446876 Hartrees.
 NAtoms=   10 NActive=   10 NUniq=   10 SFac= 7.50D-01 NAtFMM=   80 NAOKFM=F Big=F
 One-electron integrals computed using PRISM.
 NBasis=   108 RedAO= T  NBF=    79    29
 NBsUse=   108 1.00D-06 NBFU=    79    29
 Initial guess read from the read-write file.
 B after Tr=     0.000000    0.000000    0.000000
         Rot=    1.000000    0.000000    0.000000    0.000000 Ang=   0.00 deg.
 Initial guess orbital symmetries:
       Occupied  (A') (A') (A') (A') (A') (A') (A') (A') (A') (A")
                 (A') (A') (A') (A') (A') (A') (A') (A") (A') (A')
                 (A') (A') (A') (A") (A') (A") (A")
       Virtual   (A") (A') (A') (A") (A') (A') (A') (A') (A') (A')
                 (A') (A') (A') (A") (A') (A') (A") (A') (A') (A')
                 (A") (A") (A") (A') (A') (A') (A') (A") (A') (A')
                 (A") (A') (A') (A') (A") (A') (A") (A') (A") (A')
                 (A") (A') (A') (A') (A") (A') (A") (A') (A') (A')
                 (A") (A') (A') (A') (A") (A') (A") (A') (A") (A')
                 (A") (A') (A") (A') (A') (A') (A") (A') (A') (A')
                 (A') (A') (A') (A') (A') (A') (A") (A') (A") (A')
                 (A')
 Harris functional with IExCor=  205 diagonalized for initial guess.
 ExpMin= 1.22D-01 ExpMax= 1.28D+05 ExpMxC= 1.24D+03 IAcc=2 IRadAn=         0 AccDes= 0.00D+00
 HarFok:  IExCor=  205 AccDes= 0.00D+00 IRadAn=         0 IDoV= 1
 ScaDFX=  1.000000  1.000000  1.000000  1.000000
 FoFCou: FMM=F IPFlag=           0 FMFlag=      100000 FMFlg1=           0
         NFxFlg=           0 DoJE=T BraDBF=F KetDBF=T FulRan=T
         Omega=  0.000000  0.000000  1.000000  0.000000  0.000000 ICntrl=     500 IOpCl=  0
         NMat0=    1 NMatS0=    1 NMatT0=    0 NMatD0=    1 NMtDS0=    0 NMtDT0=    0
         I1Cent=           4 NGrid=           0.
 Petite list used in FoFCou.
 Requested convergence on RMS density matrix=1.00D-08 within 128 cycles.
 Requested convergence on MAX density matrix=1.00D-06.
 Requested convergence on             energy=1.00D-06.
 No special actions if energy rises.
 Keep R1 ints in memory in canonical form, NReq=22367630.
 SCF Done:  E(RHF) =  -712.709365768     A.U. after   14 cycles
             Convg  =    0.7459D-08             -V/T =  1.9999
 Calling FoFJK, ICntrl=      2127 FMM=F ISym2X=1 I1Cent= 0 IOpClX= 0 NMat=1 NMatS=1 NMatT=0.
 ***** Axes restored to original set *****
 -------------------------------------------------------------------
 Center     Atomic                   Forces (Hartrees/Bohr)
 Number     Number              X              Y              Z
 -------------------------------------------------------------------
      1        6          -0.008474132   -0.002707053    0.000000000
      2        6           0.002326548   -0.000333752    0.000000000
      3        6           0.000685999    0.000911572    0.000000000
      4        1           0.000951308   -0.000689413    0.000000000
      5        6           0.004815982    0.001709757    0.000000000
      6        1           0.002298714    0.000281640    0.000000000
      7        1          -0.000268792    0.001975251    0.000000000
      8       17           0.002096588   -0.002067194    0.000000000
      9        1          -0.001576768   -0.000748042    0.000000000
     10        9          -0.002855448    0.001667234    0.000000000
 -------------------------------------------------------------------
 Cartesian Forces:  Max     0.008474132 RMS     0.002201873

 GradGradGradGradGradGradGradGradGradGradGradGradGradGradGradGradGradGrad
 Berny optimization.
 Using GEDIIS/GDIIS optimizer.
 Internal  Forces:  Max     0.008881817 RMS     0.003172212
 Search for a local minimum.
 Step number   2 out of a maximum of   43
 All quantities printed in internal units (Hartrees-Bohrs-Radians)
 Mixed Optimization -- RFO/linear search
 Update second derivatives using D2CorX and points    1    2
 DE= -1.11D-02 DEPred=-1.22D-02 R= 9.15D-01
 SS=  1.41D+00  RLast= 2.61D-01 DXNew= 5.0454D-01 7.8240D-01
 Trust test= 9.15D-01 RLast= 2.61D-01 DXMaxT set to 5.05D-01
 Use linear search instead of GDIIS.
     Eigenvalues ---    0.00237   0.01527   0.01534   0.02681   0.02681
     Eigenvalues ---    0.02681   0.02681   0.15622   0.16000   0.16000
     Eigenvalues ---    0.16143   0.20816   0.22031   0.24687   0.25287
     Eigenvalues ---    0.29342   0.31947   0.37160   0.37230   0.37230
     Eigenvalues ---    0.37348   0.53925   0.54706   0.605651000.00000
     Eigenvalues --- 1000.000001000.000001000.000001000.000001000.00000
     Eigenvalues --- 1000.000001000.000001000.00000
 RFO step:  Lambda=-8.29902224D-04 EMin= 2.36824121D-03
 Quartic linear search produced a step of -0.06487.
 Iteration  1 RMS(Cart)=  0.02720917 RMS(Int)=  0.00016939
 Iteration  2 RMS(Cart)=  0.00019067 RMS(Int)=  0.00000001
 Iteration  3 RMS(Cart)=  0.00000001 RMS(Int)=  0.00000000
 ClnCor:  largest displacement from symmetrization is 8.76D-12 for atom     8.
 Variable       Old X    -DE/DX   Delta X   Delta X   Delta X     New X
                                 (Linear)    (Quad)   (Total)
    R1        2.48571   0.00888   0.00488   0.00731   0.01219   2.49790
    R2        3.27599  -0.00207   0.00324  -0.01227  -0.00903   3.26696
    R3        2.03444  -0.00005  -0.00081   0.00125   0.00044   2.03488
    R4        2.74985   0.00860   0.01040   0.00962   0.02002   2.76987
    R5        2.49126   0.00277   0.00388  -0.00170   0.00218   2.49344
    R6        2.04134   0.00105  -0.00125   0.00479   0.00354   2.04488
    R7        2.49609   0.00689   0.00421   0.00496   0.00917   2.50526
    R8        2.04403  -0.00086  -0.00143   0.00031  -0.00112   2.04291
    R9        2.04449  -0.00027  -0.00146   0.00182   0.00036   2.04485
    A1        2.13785   0.00339  -0.00295   0.01983   0.01689   2.15473
    A2        2.11295   0.00008  -0.00095   0.00521   0.00427   2.11721
    A3        2.03239  -0.00347   0.00389  -0.02505  -0.02115   2.01124
    A4        2.15492   0.00269  -0.00405   0.01739   0.01334   2.16825
    A5        2.12132  -0.00359  -0.00149  -0.01067  -0.01216   2.10916
    A6        2.00695   0.00090   0.00554  -0.00672  -0.00118   2.00578
    A7        2.02600  -0.00266   0.00431  -0.01883  -0.01452   2.01147
    A8        2.13136   0.00637  -0.00214   0.03096   0.02882   2.16018
    A9        2.12583  -0.00372  -0.00217  -0.01212  -0.01429   2.11154
   A10        2.11065   0.00159  -0.00080   0.01081   0.01001   2.12066
   A11        2.10011   0.00123  -0.00050   0.00812   0.00762   2.10773
   A12        2.07243  -0.00281   0.00130  -0.01893  -0.01763   2.05480
    D1        3.14159   0.00000   0.00000   0.00000   0.00000   3.14159
    D2        0.00000   0.00000   0.00000   0.00000   0.00000   0.00000
    D3        0.00000   0.00000   0.00000   0.00000   0.00000   0.00000
    D4        3.14159   0.00000   0.00000   0.00000   0.00000   3.14159
    D5        0.00000   0.00000   0.00000   0.00000   0.00000   0.00000
    D6        3.14159   0.00000   0.00000   0.00000   0.00000   3.14159
    D7        3.14159   0.00000   0.00000   0.00000   0.00000   3.14159
    D8        0.00000   0.00000   0.00000   0.00000   0.00000   0.00000
    D9        0.00000   0.00000   0.00000   0.00000   0.00000   0.00000
   D10        3.14159   0.00000   0.00000   0.00000   0.00000   3.14159
   D11        3.14159   0.00000   0.00000   0.00000   0.00000   3.14159
   D12        0.00000   0.00000   0.00000   0.00000   0.00000   0.00000
         Item               Value     Threshold  Converged?
 Maximum Force            0.008882     0.000450     NO 
 RMS     Force            0.003172     0.000300     NO 
 Maximum Displacement     0.087072     0.001800     NO 
 RMS     Displacement     0.027147     0.001200     NO 
 Predicted change in Energy=-4.670261D-04
 GradGradGradGradGradGradGradGradGradGradGradGradGradGradGradGradGradGrad

                          Input orientation:                          
 ---------------------------------------------------------------------
 Center     Atomic      Atomic             Coordinates (Angstroms)
 Number     Number       Type             X           Y           Z
 ---------------------------------------------------------------------
      1          6           0       -2.098954   -1.679778    0.000000
      2          6           0       -1.401954   -0.556643    0.000000
      3          6           0        0.062504   -0.495045    0.000000
      4          1           0        0.564799   -1.453507    0.000000
      5          6           0        0.752440    0.637005    0.000000
      6          1           0        0.259389    1.599084    0.000000
      7          1           0        1.834472    0.625734    0.000000
      8         17           0       -3.827054   -1.729075    0.000000
      9          1           0       -1.612277   -2.640338    0.000000
     10          9           0       -2.007763    0.615532    0.000000
 ---------------------------------------------------------------------
                    Distance matrix (angstroms):
                    1          2          3          4          5
     1  C    0.000000
     2  C    1.321833   0.000000
     3  C    2.464852   1.465752   0.000000
     4  H    2.673346   2.161592   1.082105   0.000000
     5  C    3.673954   2.462968   1.325726   2.098917   0.000000
     6  H    4.038901   2.721621   2.103364   3.067832   1.081063
     7  H    4.559301   3.445644   2.096668   2.436250   1.082090
     8  Cl   1.728803   2.693643   4.080624   4.400490   5.154620
     9  H    1.076814   2.094283   2.721612   2.479562   4.041394
    10  F    2.297122   1.319470   2.349338   3.301364   2.760287
                    6          7          8          9         10
     6  H    0.000000
     7  H    1.851566   0.000000
     8  Cl   5.270262   6.131721   0.000000
     9  H    4.634203   4.748400   2.394919   0.000000
    10  F    2.471306   3.842249   2.967660   3.279802   0.000000
 Stoichiometry    C4H4ClF
 Framework group  CS[SG(C4H4ClF)]
 Deg. of freedom    17
 Full point group                 CS      NOp   2
 Largest Abelian subgroup         CS      NOp   2
 Largest concise Abelian subgroup C1      NOp   1
                         Standard orientation:                         
 ---------------------------------------------------------------------
 Center     Atomic      Atomic             Coordinates (Angstroms)
 Number     Number       Type             X           Y           Z
 ---------------------------------------------------------------------
      1          6           0       -0.815197   -0.596961    0.000000
      2          6           0        0.000000    0.443566    0.000000
      3          6           0       -0.445431    1.839997    0.000000
      4          1           0       -1.518137    1.982313    0.000000
      5          6           0        0.380565    2.876954    0.000000
      6          1           0        1.453490    2.744562    0.000000
      7          1           0       -0.001872    3.889210    0.000000
      8         17           0       -0.267610   -2.236750    0.000000
      9          1           0       -1.884505   -0.470033    0.000000
     10          9           0        1.308976    0.277485    0.000000
 ---------------------------------------------------------------------
 Rotational constants (GHZ):     10.1119852      1.4268175      1.2503860
 Standard basis: CC-pVDZ (5D, 7F)
 There are    79 symmetry adapted basis functions of A'  symmetry.
 There are    29 symmetry adapted basis functions of A"  symmetry.
 Integral buffers will be    131072 words long.
 Raffenetti 1 integral format.
 Two-electron integral symmetry is turned on.
   108 basis functions,   264 primitive gaussians,   114 cartesian basis functions
    27 alpha electrons       27 beta electrons
       nuclear repulsion energy       263.4173210539 Hartrees.
 NAtoms=   10 NActive=   10 NUniq=   10 SFac= 7.50D-01 NAtFMM=   80 NAOKFM=F Big=F
 One-electron integrals computed using PRISM.
 NBasis=   108 RedAO= T  NBF=    79    29
 NBsUse=   108 1.00D-06 NBFU=    79    29
 Initial guess read from the read-write file.
 B after Tr=     0.000000    0.000000    0.000000
         Rot=    1.000000    0.000000    0.000000    0.000000 Ang=   0.00 deg.
 Initial guess orbital symmetries:
       Occupied  (A') (A') (A') (A') (A') (A') (A') (A') (A') (A")
                 (A') (A') (A') (A') (A') (A') (A') (A") (A') (A')
                 (A') (A') (A') (A") (A') (A") (A")
       Virtual   (A") (A') (A') (A') (A") (A') (A') (A') (A') (A')
                 (A') (A') (A') (A") (A') (A') (A") (A') (A') (A')
                 (A") (A") (A") (A') (A') (A') (A") (A') (A') (A')
                 (A") (A') (A') (A') (A") (A') (A") (A') (A") (A')
                 (A") (A') (A') (A') (A') (A") (A") (A') (A') (A')
                 (A") (A') (A') (A') (A") (A") (A') (A') (A") (A')
                 (A") (A') (A') (A") (A') (A") (A') (A') (A') (A')
                 (A') (A') (A') (A') (A') (A') (A") (A') (A") (A')
                 (A')
 Harris functional with IExCor=  205 diagonalized for initial guess.
 ExpMin= 1.22D-01 ExpMax= 1.28D+05 ExpMxC= 1.24D+03 IAcc=2 IRadAn=         0 AccDes= 0.00D+00
 HarFok:  IExCor=  205 AccDes= 0.00D+00 IRadAn=         0 IDoV= 1
 ScaDFX=  1.000000  1.000000  1.000000  1.000000
 FoFCou: FMM=F IPFlag=           0 FMFlag=      100000 FMFlg1=           0
         NFxFlg=           0 DoJE=T BraDBF=F KetDBF=T FulRan=T
         Omega=  0.000000  0.000000  1.000000  0.000000  0.000000 ICntrl=     500 IOpCl=  0
         NMat0=    1 NMatS0=    1 NMatT0=    0 NMatD0=    1 NMtDS0=    0 NMtDT0=    0
         I1Cent=           4 NGrid=           0.
 Petite list used in FoFCou.
 Requested convergence on RMS density matrix=1.00D-08 within 128 cycles.
 Requested convergence on MAX density matrix=1.00D-06.
 Requested convergence on             energy=1.00D-06.
 No special actions if energy rises.
 Keep R1 ints in memory in canonical form, NReq=22367630.
 SCF Done:  E(RHF) =  -712.709759850     A.U. after   11 cycles
             Convg  =    0.4258D-08             -V/T =  2.0000
 Calling FoFJK, ICntrl=      2127 FMM=F ISym2X=1 I1Cent= 0 IOpClX= 0 NMat=1 NMatS=1 NMatT=0.
 ***** Axes restored to original set *****
 -------------------------------------------------------------------
 Center     Atomic                   Forces (Hartrees/Bohr)
 Number     Number              X              Y              Z
 -------------------------------------------------------------------
      1        6           0.000613151    0.000523870    0.000000000
      2        6           0.002271792   -0.001782776    0.000000000
      3        6          -0.000696863   -0.000233793    0.000000000
      4        1           0.000448894    0.000110247    0.000000000
      5        6          -0.001358085   -0.001627992    0.000000000
      6        1           0.000213039    0.000315391    0.000000000
      7        1          -0.000494053    0.000022616    0.000000000
      8       17           0.000281349    0.000240518    0.000000000
      9        1           0.000216681    0.000107318    0.000000000
     10        9          -0.001495905    0.002324602    0.000000000
 -------------------------------------------------------------------
 Cartesian Forces:  Max     0.002324602 RMS     0.000865349

 GradGradGradGradGradGradGradGradGradGradGradGradGradGradGradGradGradGrad
 Berny optimization.
 Using GEDIIS/GDIIS optimizer.
 Internal  Forces:  Max     0.002751920 RMS     0.000805205
 Search for a local minimum.
 Step number   3 out of a maximum of   43
 All quantities printed in internal units (Hartrees-Bohrs-Radians)
 Mixed Optimization -- En-DIIS/RFO-DIIS
 Update second derivatives using D2CorX and points    1    2    3
 DE= -3.94D-04 DEPred=-4.67D-04 R= 8.44D-01
 SS=  1.41D+00  RLast= 5.94D-02 DXNew= 8.4853D-01 1.7815D-01
 Trust test= 8.44D-01 RLast= 5.94D-02 DXMaxT set to 5.05D-01
 Use linear search instead of GDIIS.
     Eigenvalues ---    0.00237   0.01524   0.01526   0.02681   0.02681
     Eigenvalues ---    0.02681   0.02681   0.14802   0.16000   0.16033
     Eigenvalues ---    0.16215   0.20920   0.22142   0.24759   0.25406
     Eigenvalues ---    0.29132   0.34049   0.37117   0.37230   0.37281
     Eigenvalues ---    0.37403   0.53889   0.55799   0.658851000.00000
     Eigenvalues --- 1000.000001000.000001000.000001000.000001000.00000
     Eigenvalues --- 1000.000001000.000001000.00000
 RFO step:  Lambda=-2.81615171D-05 EMin= 2.36824121D-03
 Quartic linear search produced a step of -0.12833.
 Iteration  1 RMS(Cart)=  0.00328796 RMS(Int)=  0.00000217
 Iteration  2 RMS(Cart)=  0.00000264 RMS(Int)=  0.00000000
 Iteration  3 RMS(Cart)=  0.00000000 RMS(Int)=  0.00000000
 ClnCor:  largest displacement from symmetrization is 1.68D-12 for atom     7.
 Variable       Old X    -DE/DX   Delta X   Delta X   Delta X     New X
                                 (Linear)    (Quad)   (Total)
    R1        2.49790  -0.00133  -0.00156   0.00016  -0.00141   2.49650
    R2        3.26696  -0.00029   0.00116  -0.00203  -0.00087   3.26609
    R3        2.03488   0.00000  -0.00006   0.00002  -0.00004   2.03484
    R4        2.76987  -0.00194  -0.00257  -0.00187  -0.00444   2.76543
    R5        2.49344   0.00275  -0.00028   0.00494   0.00466   2.49810
    R6        2.04488   0.00011  -0.00045   0.00073   0.00028   2.04516
    R7        2.50526  -0.00195  -0.00118  -0.00138  -0.00256   2.50270
    R8        2.04291   0.00018   0.00014   0.00014   0.00029   2.04320
    R9        2.04485  -0.00049  -0.00005  -0.00120  -0.00125   2.04361
    A1        2.15473  -0.00034  -0.00217   0.00107  -0.00110   2.15363
    A2        2.11721  -0.00007  -0.00055  -0.00012  -0.00067   2.11654
    A3        2.01124   0.00042   0.00271  -0.00095   0.00177   2.01301
    A4        2.16825  -0.00085  -0.00171  -0.00115  -0.00286   2.16539
    A5        2.10916   0.00010   0.00156  -0.00173  -0.00017   2.10899
    A6        2.00578   0.00075   0.00015   0.00288   0.00303   2.00881
    A7        2.01147   0.00100   0.00186   0.00276   0.00463   2.01610
    A8        2.16018  -0.00109  -0.00370   0.00008  -0.00362   2.15656
    A9        2.11154   0.00009   0.00183  -0.00285  -0.00101   2.11052
   A10        2.12066   0.00044  -0.00128   0.00388   0.00260   2.12326
   A11        2.10773  -0.00020  -0.00098   0.00004  -0.00093   2.10679
   A12        2.05480  -0.00024   0.00226  -0.00393  -0.00166   2.05313
    D1        3.14159   0.00000   0.00000   0.00000   0.00000   3.14159
    D2        0.00000   0.00000   0.00000   0.00000   0.00000   0.00000
    D3        0.00000   0.00000   0.00000   0.00000   0.00000   0.00000
    D4        3.14159   0.00000   0.00000   0.00000   0.00000   3.14159
    D5        0.00000   0.00000   0.00000   0.00000   0.00000   0.00000
    D6        3.14159   0.00000   0.00000   0.00000   0.00000   3.14159
    D7        3.14159   0.00000   0.00000   0.00000   0.00000   3.14159
    D8        0.00000   0.00000   0.00000   0.00000   0.00000   0.00000
    D9        0.00000   0.00000   0.00000   0.00000   0.00000   0.00000
   D10        3.14159   0.00000   0.00000   0.00000   0.00000   3.14159
   D11        3.14159   0.00000   0.00000   0.00000   0.00000   3.14159
   D12        0.00000   0.00000   0.00000   0.00000   0.00000   0.00000
         Item               Value     Threshold  Converged?
 Maximum Force            0.002752     0.000450     NO 
 RMS     Force            0.000805     0.000300     NO 
 Maximum Displacement     0.007379     0.001800     NO 
 RMS     Displacement     0.003288     0.001200     NO 
 Predicted change in Energy=-2.250872D-05
 GradGradGradGradGradGradGradGradGradGradGradGradGradGradGradGradGradGrad

                          Input orientation:                          
 ---------------------------------------------------------------------
 Center     Atomic      Atomic             Coordinates (Angstroms)
 Number     Number       Type             X           Y           Z
 ---------------------------------------------------------------------
      1          6           0       -2.096655   -1.678430    0.000000
      2          6           0       -1.400739   -0.555497    0.000000
      3          6           0        0.061506   -0.497282    0.000000
      4          1           0        0.566150   -1.454677    0.000000
      5          6           0        0.749190    0.634554    0.000000
      6          1           0        0.257253    1.597373    0.000000
      7          1           0        1.830567    0.623760    0.000000
      8         17           0       -3.824317   -1.726882    0.000000
      9          1           0       -1.608751   -2.638343    0.000000
     10          9           0       -2.008602    0.618393    0.000000
 ---------------------------------------------------------------------
                    Distance matrix (angstroms):
                    1          2          3          4          5
     1  C    0.000000
     2  C    1.321090   0.000000
     3  C    2.460238   1.463403   0.000000
     4  H    2.672190   2.162679   1.082253   0.000000
     5  C    3.667250   2.457318   1.324372   2.097234   0.000000
     6  H    4.033828   2.717312   2.103782   3.067642   1.081214
     7  H    4.552269   3.439765   2.094353   2.432828   1.081431
     8  Cl   1.728342   2.691816   4.075725   4.398898   5.147169
     9  H    1.076793   2.093208   2.715492   2.476138   4.033824
    10  F    2.298510   1.321936   2.351611   3.305597   2.757839
                    6          7          8          9         10
     6  H    0.000000
     7  H    1.850200   0.000000
     8  Cl   5.264019   6.123988   0.000000
     9  H    4.628527   4.740277   2.395724   0.000000
    10  F    2.468299   3.839172   2.965997   3.281190   0.000000
 Stoichiometry    C4H4ClF
 Framework group  CS[SG(C4H4ClF)]
 Deg. of freedom    17
 Full point group                 CS      NOp   2
 Largest Abelian subgroup         CS      NOp   2
 Largest concise Abelian subgroup C1      NOp   1
                         Standard orientation:                         
 ---------------------------------------------------------------------
 Center     Atomic      Atomic             Coordinates (Angstroms)
 Number     Number       Type             X           Y           Z
 ---------------------------------------------------------------------
      1          6           0       -0.815253   -0.595318    0.000000
      2          6           0        0.000000    0.444220    0.000000
      3          6           0       -0.448018    1.837357    0.000000
      4          1           0       -1.520546    1.982115    0.000000
      5          6           0        0.378425    2.872225    0.000000
      6          1           0        1.451679    2.741265    0.000000
      7          1           0       -0.003462    3.883984    0.000000
      8         17           0       -0.266824   -2.234339    0.000000
      9          1           0       -1.884391   -0.467146    0.000000
     10          9           0        1.311312    0.276961    0.000000
 ---------------------------------------------------------------------
 Rotational constants (GHZ):     10.0791277      1.4306707      1.2528380
 Standard basis: CC-pVDZ (5D, 7F)
 There are    79 symmetry adapted basis functions of A'  symmetry.
 There are    29 symmetry adapted basis functions of A"  symmetry.
 Integral buffers will be    131072 words long.
 Raffenetti 1 integral format.
 Two-electron integral symmetry is turned on.
   108 basis functions,   264 primitive gaussians,   114 cartesian basis functions
    27 alpha electrons       27 beta electrons
       nuclear repulsion energy       263.5396887085 Hartrees.
 NAtoms=   10 NActive=   10 NUniq=   10 SFac= 7.50D-01 NAtFMM=   80 NAOKFM=F Big=F
 One-electron integrals computed using PRISM.
 NBasis=   108 RedAO= T  NBF=    79    29
 NBsUse=   108 1.00D-06 NBFU=    79    29
 Initial guess read from the read-write file.
 B after Tr=     0.000000    0.000000    0.000000
         Rot=    1.000000    0.000000    0.000000    0.000000 Ang=   0.00 deg.
 Initial guess orbital symmetries:
       Occupied  (A') (A') (A') (A') (A') (A') (A') (A') (A') (A")
                 (A') (A') (A') (A') (A') (A') (A') (A") (A') (A')
                 (A') (A') (A') (A") (A') (A") (A")
       Virtual   (A") (A') (A') (A') (A") (A') (A') (A') (A') (A')
                 (A') (A') (A') (A") (A') (A') (A") (A') (A') (A')
                 (A") (A") (A") (A') (A') (A') (A") (A') (A') (A')
                 (A") (A') (A') (A') (A") (A') (A") (A') (A") (A')
                 (A") (A') (A') (A') (A") (A') (A") (A') (A') (A')
                 (A") (A') (A') (A') (A") (A") (A') (A') (A") (A')
                 (A") (A') (A') (A") (A') (A") (A') (A') (A') (A')
                 (A') (A') (A') (A') (A') (A') (A") (A') (A") (A')
                 (A')
 Requested convergence on RMS density matrix=1.00D-08 within 128 cycles.
 Requested convergence on MAX density matrix=1.00D-06.
 Requested convergence on             energy=1.00D-06.
 No special actions if energy rises.
 Keep R1 ints in memory in canonical form, NReq=22367630.
 SCF Done:  E(RHF) =  -712.709783253     A.U. after    9 cycles
             Convg  =    0.7901D-08             -V/T =  2.0000
 Calling FoFJK, ICntrl=      2127 FMM=F ISym2X=1 I1Cent= 0 IOpClX= 0 NMat=1 NMatS=1 NMatT=0.
 ***** Axes restored to original set *****
 -------------------------------------------------------------------
 Center     Atomic                   Forces (Hartrees/Bohr)
 Number     Number              X              Y              Z
 -------------------------------------------------------------------
      1        6          -0.000190201    0.000183628    0.000000000
      2        6           0.000370859   -0.000573840    0.000000000
      3        6          -0.000280305   -0.000171700    0.000000000
      4        1          -0.000013736    0.000107480    0.000000000
      5        6          -0.000074427    0.000014328    0.000000000
      6        1           0.000070964    0.000067661    0.000000000
      7        1           0.000082696    0.000085818    0.000000000
      8       17           0.000008468   -0.000001046    0.000000000
      9        1           0.000091115    0.000035863    0.000000000
     10        9          -0.000065433    0.000251808    0.000000000
 -------------------------------------------------------------------
 Cartesian Forces:  Max     0.000573840 RMS     0.000159523

 GradGradGradGradGradGradGradGradGradGradGradGradGradGradGradGradGradGrad
 Berny optimization.
 Using GEDIIS/GDIIS optimizer.
 Internal  Forces:  Max     0.000253696 RMS     0.000099613
 Search for a local minimum.
 Step number   4 out of a maximum of   43
 All quantities printed in internal units (Hartrees-Bohrs-Radians)
 Mixed Optimization -- En-DIIS/RFO-DIIS
 Swaping is turned off.
 Update second derivatives using D2CorX and points    1    2    3    4
 DE= -2.34D-05 DEPred=-2.25D-05 R= 1.04D+00
 SS=  1.41D+00  RLast= 1.10D-02 DXNew= 8.4853D-01 3.2934D-02
 Trust test= 1.04D+00 RLast= 1.10D-02 DXMaxT set to 5.05D-01
     Eigenvalues ---    0.00237   0.01521   0.01524   0.02681   0.02681
     Eigenvalues ---    0.02681   0.02681   0.14417   0.15573   0.16035
     Eigenvalues ---    0.16166   0.20865   0.22006   0.24635   0.26665
     Eigenvalues ---    0.29289   0.33046   0.37149   0.37229   0.37337
     Eigenvalues ---    0.37638   0.52707   0.55873   0.665391000.00000
     Eigenvalues --- 1000.000001000.000001000.000001000.000001000.00000
     Eigenvalues --- 1000.000001000.000001000.00000
 En-DIIS/RFO-DIIS IScMMF=        0 using points:     4    3
 RFO step:  Lambda=-6.13807838D-07.
 DIIS coeffs:      1.03270     -0.03270
 Iteration  1 RMS(Cart)=  0.00059905 RMS(Int)=  0.00000020
 Iteration  2 RMS(Cart)=  0.00000031 RMS(Int)=  0.00000000
 ClnCor:  largest displacement from symmetrization is 1.47D-13 for atom     8.
 Variable       Old X    -DE/DX   Delta X   Delta X   Delta X     New X
                                  (DIIS)     (GDIIS)  (Total)
    R1        2.49650  -0.00014  -0.00005  -0.00020  -0.00024   2.49626
    R2        3.26609  -0.00001  -0.00003  -0.00009  -0.00012   3.26598
    R3        2.03484   0.00001   0.00000   0.00003   0.00003   2.03487
    R4        2.76543  -0.00021  -0.00015  -0.00065  -0.00079   2.76464
    R5        2.49810   0.00025   0.00015   0.00048   0.00064   2.49873
    R6        2.04516  -0.00010   0.00001  -0.00026  -0.00025   2.04491
    R7        2.50270   0.00018  -0.00008   0.00041   0.00033   2.50303
    R8        2.04320   0.00003   0.00001   0.00007   0.00008   2.04328
    R9        2.04361   0.00008  -0.00004   0.00023   0.00019   2.04380
    A1        2.15363   0.00007  -0.00004   0.00043   0.00039   2.15403
    A2        2.11654  -0.00013  -0.00002  -0.00078  -0.00081   2.11574
    A3        2.01301   0.00006   0.00006   0.00035   0.00041   2.01342
    A4        2.16539   0.00023  -0.00009   0.00105   0.00096   2.16635
    A5        2.10899  -0.00004  -0.00001  -0.00026  -0.00026   2.10873
    A6        2.00881  -0.00019   0.00010  -0.00080  -0.00070   2.00811
    A7        2.01610   0.00006   0.00015   0.00028   0.00043   2.01653
    A8        2.15656  -0.00005  -0.00012  -0.00005  -0.00017   2.15640
    A9        2.11052  -0.00001  -0.00003  -0.00023  -0.00026   2.11026
   A10        2.12326   0.00007   0.00008   0.00051   0.00059   2.12385
   A11        2.10679   0.00005  -0.00003   0.00040   0.00037   2.10716
   A12        2.05313  -0.00012  -0.00005  -0.00090  -0.00096   2.05217
    D1        3.14159   0.00000   0.00000   0.00000   0.00000   3.14159
    D2        0.00000   0.00000   0.00000   0.00000   0.00000   0.00000
    D3        0.00000   0.00000   0.00000   0.00000   0.00000   0.00000
    D4        3.14159   0.00000   0.00000   0.00000   0.00000   3.14159
    D5        0.00000   0.00000   0.00000   0.00000   0.00000   0.00000
    D6        3.14159   0.00000   0.00000   0.00000   0.00000   3.14159
    D7        3.14159   0.00000   0.00000   0.00000   0.00000   3.14159
    D8        0.00000   0.00000   0.00000   0.00000   0.00000   0.00000
    D9        0.00000   0.00000   0.00000   0.00000   0.00000   0.00000
   D10        3.14159   0.00000   0.00000   0.00000   0.00000   3.14159
   D11        3.14159   0.00000   0.00000   0.00000   0.00000   3.14159
   D12        0.00000   0.00000   0.00000   0.00000   0.00000   0.00000
         Item               Value     Threshold  Converged?
 Maximum Force            0.000254     0.000450     YES
 RMS     Force            0.000100     0.000300     YES
 Maximum Displacement     0.001573     0.001800     YES
 RMS     Displacement     0.000599     0.001200     YES
 Predicted change in Energy=-6.060246D-07
 Optimization completed.
    -- Stationary point found.
                           ----------------------------
                           !   Optimized Parameters   !
                           ! (Angstroms and Degrees)  !
 --------------------------                            --------------------------
 ! Name  Definition              Value          Derivative Info.                !
 --------------------------------------------------------------------------------
 ! R1    R(1,2)                  1.3211         -DE/DX =   -0.0001              !
 ! R2    R(1,8)                  1.7283         -DE/DX =    0.0                 !
 ! R3    R(1,9)                  1.0768         -DE/DX =    0.0                 !
 ! R4    R(2,3)                  1.4634         -DE/DX =   -0.0002              !
 ! R5    R(2,10)                 1.3219         -DE/DX =    0.0003              !
 ! R6    R(3,4)                  1.0823         -DE/DX =   -0.0001              !
 ! R7    R(3,5)                  1.3244         -DE/DX =    0.0002              !
 ! R8    R(5,6)                  1.0812         -DE/DX =    0.0                 !
 ! R9    R(5,7)                  1.0814         -DE/DX =    0.0001              !
 ! A1    A(2,1,8)              123.3942         -DE/DX =    0.0001              !
 ! A2    A(2,1,9)              121.2689         -DE/DX =   -0.0001              !
 ! A3    A(8,1,9)              115.3369         -DE/DX =    0.0001              !
 ! A4    A(1,2,3)              124.0676         -DE/DX =    0.0002              !
 ! A5    A(1,2,10)             120.8363         -DE/DX =    0.0                 !
 ! A6    A(3,2,10)             115.0961         -DE/DX =   -0.0002              !
 ! A7    A(2,3,4)              115.514          -DE/DX =    0.0001              !
 ! A8    A(2,3,5)              123.562          -DE/DX =    0.0                 !
 ! A9    A(4,3,5)              120.9241         -DE/DX =    0.0                 !
 ! A10   A(3,5,6)              121.6538         -DE/DX =    0.0001              !
 ! A11   A(3,5,7)              120.7103         -DE/DX =    0.0001              !
 ! A12   A(6,5,7)              117.6359         -DE/DX =   -0.0001              !
 ! D1    D(8,1,2,3)            180.0            -DE/DX =    0.0                 !
 ! D2    D(8,1,2,10)             0.0            -DE/DX =    0.0                 !
 ! D3    D(9,1,2,3)              0.0            -DE/DX =    0.0                 !
 ! D4    D(9,1,2,10)           180.0            -DE/DX =    0.0                 !
 ! D5    D(1,2,3,4)              0.0            -DE/DX =    0.0                 !
 ! D6    D(1,2,3,5)            180.0            -DE/DX =    0.0                 !
 ! D7    D(10,2,3,4)           180.0            -DE/DX =    0.0                 !
 ! D8    D(10,2,3,5)             0.0            -DE/DX =    0.0                 !
 ! D9    D(2,3,5,6)              0.0            -DE/DX =    0.0                 !
 ! D10   D(2,3,5,7)            180.0            -DE/DX =    0.0                 !
 ! D11   D(4,3,5,6)            180.0            -DE/DX =    0.0                 !
 ! D12   D(4,3,5,7)              0.0            -DE/DX =    0.0                 !
 --------------------------------------------------------------------------------
 GradGradGradGradGradGradGradGradGradGradGradGradGradGradGradGradGradGrad

                          Input orientation:                          
 ---------------------------------------------------------------------
 Center     Atomic      Atomic             Coordinates (Angstroms)
 Number     Number       Type             X           Y           Z
 ---------------------------------------------------------------------
      1          6           0       -2.096655   -1.678430    0.000000
      2          6           0       -1.400739   -0.555497    0.000000
      3          6           0        0.061506   -0.497282    0.000000
      4          1           0        0.566150   -1.454677    0.000000
      5          6           0        0.749190    0.634554    0.000000
      6          1           0        0.257253    1.597373    0.000000
      7          1           0        1.830567    0.623760    0.000000
      8         17           0       -3.824317   -1.726882    0.000000
      9          1           0       -1.608751   -2.638343    0.000000
     10          9           0       -2.008602    0.618393    0.000000
 ---------------------------------------------------------------------
                    Distance matrix (angstroms):
                    1          2          3          4          5
     1  C    0.000000
     2  C    1.321090   0.000000
     3  C    2.460238   1.463403   0.000000
     4  H    2.672190   2.162679   1.082253   0.000000
     5  C    3.667250   2.457318   1.324372   2.097234   0.000000
     6  H    4.033828   2.717312   2.103782   3.067642   1.081214
     7  H    4.552269   3.439765   2.094353   2.432828   1.081431
     8  Cl   1.728342   2.691816   4.075725   4.398898   5.147169
     9  H    1.076793   2.093208   2.715492   2.476138   4.033824
    10  F    2.298510   1.321936   2.351611   3.305597   2.757839
                    6          7          8          9         10
     6  H    0.000000
     7  H    1.850200   0.000000
     8  Cl   5.264019   6.123988   0.000000
     9  H    4.628527   4.740277   2.395724   0.000000
    10  F    2.468299   3.839172   2.965997   3.281190   0.000000
 Stoichiometry    C4H4ClF
 Framework group  CS[SG(C4H4ClF)]
 Deg. of freedom    17
 Full point group                 CS      NOp   2
 Largest Abelian subgroup         CS      NOp   2
 Largest concise Abelian subgroup C1      NOp   1
                         Standard orientation:                         
 ---------------------------------------------------------------------
 Center     Atomic      Atomic             Coordinates (Angstroms)
 Number     Number       Type             X           Y           Z
 ---------------------------------------------------------------------
      1          6           0       -0.815253   -0.595318    0.000000
      2          6           0        0.000000    0.444220    0.000000
      3          6           0       -0.448018    1.837357    0.000000
      4          1           0       -1.520546    1.982115    0.000000
      5          6           0        0.378425    2.872225    0.000000
      6          1           0        1.451679    2.741265    0.000000
      7          1           0       -0.003462    3.883984    0.000000
      8         17           0       -0.266824   -2.234339    0.000000
      9          1           0       -1.884391   -0.467146    0.000000
     10          9           0        1.311312    0.276961    0.000000
 ---------------------------------------------------------------------
 Rotational constants (GHZ):     10.0791277      1.4306707      1.2528380

 **********************************************************************

            Population analysis using the SCF density.

 **********************************************************************

 Orbital symmetries:
       Occupied  (A') (A') (A') (A') (A') (A') (A') (A') (A') (A")
                 (A') (A') (A') (A') (A') (A') (A') (A") (A') (A')
                 (A') (A') (A') (A") (A') (A") (A")
       Virtual   (A") (A') (A') (A') (A") (A') (A') (A') (A') (A')
                 (A') (A') (A') (A") (A') (A') (A") (A') (A') (A')
                 (A") (A") (A") (A') (A') (A') (A") (A') (A') (A')
                 (A") (A') (A') (A') (A") (A') (A") (A') (A") (A')
                 (A") (A') (A') (A') (A") (A') (A") (A') (A') (A')
                 (A") (A') (A') (A') (A") (A") (A') (A') (A") (A')
                 (A") (A') (A') (A") (A') (A") (A') (A') (A') (A')
                 (A') (A') (A') (A') (A') (A') (A") (A') (A") (A')
                 (A')
 The electronic state is 1-A'.
 Alpha  occ. eigenvalues -- -104.83951 -26.32681 -11.34939 -11.30148 -11.26594
 Alpha  occ. eigenvalues --  -11.25743 -10.56594  -8.03366  -8.03005  -8.03002
 Alpha  occ. eigenvalues --   -1.65369  -1.16691  -1.10022  -1.01089  -0.84805
 Alpha  occ. eigenvalues --   -0.81106  -0.74207  -0.71026  -0.68555  -0.63484
 Alpha  occ. eigenvalues --   -0.60912  -0.56949  -0.53267  -0.51419  -0.45577
 Alpha  occ. eigenvalues --   -0.44162  -0.33673
 Alpha virt. eigenvalues --    0.10231   0.17709   0.20039   0.22768   0.23983
 Alpha virt. eigenvalues --    0.24030   0.27467   0.39328   0.41147   0.44113
 Alpha virt. eigenvalues --    0.53567   0.60296   0.63073   0.64453   0.67400
 Alpha virt. eigenvalues --    0.68769   0.70764   0.71351   0.75038   0.75683
 Alpha virt. eigenvalues --    0.76648   0.78835   0.80531   0.80652   0.86598
 Alpha virt. eigenvalues --    0.90129   0.93221   0.93285   0.94258   0.97796
 Alpha virt. eigenvalues --    0.97859   1.00825   1.06055   1.11184   1.11280
 Alpha virt. eigenvalues --    1.19012   1.21119   1.21490   1.23500   1.26340
 Alpha virt. eigenvalues --    1.36213   1.37029   1.40975   1.44354   1.48404
 Alpha virt. eigenvalues --    1.48734   1.62389   1.65054   1.70447   1.72931
 Alpha virt. eigenvalues --    1.74821   1.76351   1.82904   1.87966   1.89677
 Alpha virt. eigenvalues --    1.92045   1.93908   1.98402   2.00561   2.05368
 Alpha virt. eigenvalues --    2.14297   2.17921   2.23079   2.25118   2.39116
 Alpha virt. eigenvalues --    2.39324   2.40248   2.46575   2.50745   2.60010
 Alpha virt. eigenvalues --    2.74957   2.78706   2.83685   2.97814   3.18040
 Alpha virt. eigenvalues --    3.37509   3.97778   4.00026   4.20825   4.45983
 Alpha virt. eigenvalues --    4.58972
          Condensed to atoms (all electrons):
              1          2          3          4          5          6
     1  C    5.120179   0.514298  -0.095590  -0.002723   0.004829   0.000992
     2  C    0.514298   4.561922   0.398995  -0.034201  -0.077259  -0.013853
     3  C   -0.095590   0.398995   4.843717   0.417077   0.690881  -0.016629
     4  H   -0.002723  -0.034201   0.417077   0.605082  -0.023631   0.006020
     5  C    0.004829  -0.077259   0.690881  -0.023631   4.567153   0.411084
     6  H    0.000992  -0.013853  -0.016629   0.006020   0.411084   0.572715
     7  H   -0.000177   0.004813  -0.017288  -0.009992   0.405492  -0.033165
     8  Cl   0.267776  -0.094677   0.003059  -0.000032  -0.000129  -0.000012
     9  H    0.420854  -0.017023  -0.004180   0.001784   0.000271  -0.000025
    10  F   -0.059954   0.360660  -0.056291   0.001956   0.004620   0.006672
              7          8          9         10
     1  C   -0.000177   0.267776   0.420854  -0.059954
     2  C    0.004813  -0.094677  -0.017023   0.360660
     3  C   -0.017288   0.003059  -0.004180  -0.056291
     4  H   -0.009992  -0.000032   0.001784   0.001956
     5  C    0.405492  -0.000129   0.000271   0.004620
     6  H   -0.033165  -0.000012  -0.000025   0.006672
     7  H    0.590093   0.000002  -0.000015   0.000116
     8  Cl   0.000002  16.928276  -0.035343   0.001460
     9  H   -0.000015  -0.035343   0.550007   0.001810
    10  F    0.000116   0.001460   0.001810   8.994196
 Mulliken atomic charges:
              1
     1  C   -0.170483
     2  C    0.396325
     3  C   -0.163751
     4  H    0.038659
     5  C    0.016691
     6  H    0.066201
     7  H    0.060121
     8  Cl  -0.070378
     9  H    0.081861
    10  F   -0.255245
 Sum of Mulliken atomic charges =   0.00000
 Mulliken charges with hydrogens summed into heavy atoms:
              1
     1  C   -0.088623
     2  C    0.396325
     3  C   -0.125092
     5  C    0.143013
     8  Cl  -0.070378
    10  F   -0.255245
 Sum of Mulliken charges with hydrogens summed into heavy atoms =   0.00000
 Electronic spatial extent (au):  <R**2>=            862.2653
 Charge=              0.0000 electrons
 Dipole moment (field-independent basis, Debye):
    X=             -1.6000    Y=              2.3363    Z=              0.0000  Tot=              2.8317
 Quadrupole moment (field-independent basis, Debye-Ang):
   XX=            -39.2093   YY=            -38.7603   ZZ=            -43.9422
   XY=             -0.1566   XZ=              0.0000   YZ=              0.0000
 Traceless Quadrupole moment (field-independent basis, Debye-Ang):
   XX=              1.4279   YY=              1.8770   ZZ=             -3.3049
   XY=             -0.1566   XZ=              0.0000   YZ=              0.0000
 Octapole moment (field-independent basis, Debye-Ang**2):
  XXX=              2.6707  YYY=             11.0271  ZZZ=              0.0000  XYY=              6.5020
  XXY=              0.6564  XXZ=              0.0000  XZZ=              4.3639  YZZ=             -5.7922
  YYZ=              0.0000  XYZ=              0.0000
 Hexadecapole moment (field-independent basis, Debye-Ang**3):
 XXXX=           -144.8159 YYYY=           -828.6581 ZZZZ=            -46.1905 XXXY=            -41.6552
 XXXZ=              0.0000 YYYX=            -49.4714 YYYZ=              0.0000 ZZZX=              0.0000
 ZZZY=              0.0000 XXYY=           -171.4586 XXZZ=            -35.2339 YYZZ=           -173.2160
 XXYZ=              0.0000 YYXZ=              0.0000 ZZXY=            -14.7073
 N-N= 2.635396887085D+02 E-N=-2.217556090958D+03  KE= 7.127038865501D+02
 Symmetry A'   KE= 6.564757878125D+02
 Symmetry A"   KE= 5.622809873766D+01
 1\1\GINC-MALLOS66\FOpt\RHF\CC-pVDZ\C4H4Cl1F1\MARLIN\26-Oct-2024\0\\# o
 pt freq=noraman hf/cc-pvdz geom=connectivity\\Title Card Required\\0,1
 \C,-2.096655087,-1.678430035,0.\C,-1.4007392579,-0.5554967005,0.\C,0.0
 615057405,-0.4972820629,0.\H,0.5661504869,-1.4546770874,0.\C,0.7491896
 026,0.6345536721,0.\H,0.2572527778,1.5973733347,0.\H,1.8305665841,0.62
 37604562,0.\Cl,-3.824317399,-1.7268823375,0.\H,-1.6087508652,-2.638343
 0343,0.\F,-2.0086019227,0.6183929946,0.\\Version=EM64L-G09RevA.01\Stat
 e=1-A'\HF=-712.7097833\RMSD=7.901e-09\RMSF=1.595e-04\Dipole=1.0795594,
 -0.2751494,0.\Quadrupole=1.4311866,1.0259217,-2.4571083,0.0188703,0.,0
 .\PG=CS [SG(C4H4Cl1F1)]\\@


 Standing in the middle of the road is very dangerous;
 you get knocked down by the traffic from both sides.
                                -- Margaret Thatcher
 Job cpu time:  0 days  0 hours  2 minutes 55.3 seconds.
 File lengths (MBytes):  RWF=      9 Int=      0 D2E=      0 Chk=      2 Scr=      1
 Normal termination of Gaussian 09 at Sat Oct 26 20:13:22 2024.
 Link1:  Proceeding to internal job step number  2.
 ----------------------------------------------------------------
 #N Geom=AllCheck Guess=TCheck SCRF=Check GenChk RHF/CC-pVDZ Freq
 ----------------------------------------------------------------
 1/10=4,29=7,30=1,38=1,40=1/1,3;
 2/12=2,40=1/2;
 3/5=16,11=1,14=-4,16=1,25=1,30=1,70=2,71=2,116=1/1,2,3;
 4/5=101/1;
 5/5=2,98=1/2;
 8/6=4,10=90,11=11/1;
 11/6=1,8=1,9=11,15=111,16=1/1,2,10;
 10/6=1/2;
 6/7=2,8=2,9=2,10=2,18=1,28=1/1;
 7/8=1,10=1,25=1/1,2,3,16;
 1/10=4,30=1/3;
 99//99;
 -------------------
 Title Card Required
 -------------------
 Redundant internal coordinates taken from checkpoint file:
 3-base4.chk
 Charge =  0 Multiplicity = 1
 C,0,-2.096655087,-1.678430035,0.
 C,0,-1.4007392579,-0.5554967005,0.
 C,0,0.0615057405,-0.4972820629,0.
 H,0,0.5661504869,-1.4546770874,0.
 C,0,0.7491896026,0.6345536721,0.
 H,0,0.2572527778,1.5973733347,0.
 H,0,1.8305665841,0.6237604562,0.
 Cl,0,-3.824317399,-1.7268823375,0.
 H,0,-1.6087508652,-2.6383430343,0.
 F,0,-2.0086019227,0.6183929946,0.
 Recover connectivity data from disk.

 GradGradGradGradGradGradGradGradGradGradGradGradGradGradGradGradGradGrad
 Berny optimization.
 Initialization pass.
                           ----------------------------
                           !    Initial Parameters    !
                           ! (Angstroms and Degrees)  !
 --------------------------                            --------------------------
 ! Name  Definition              Value          Derivative Info.                !
 --------------------------------------------------------------------------------
 ! R1    R(1,2)                  1.3211         calculate D2E/DX2 analytically  !
 ! R2    R(1,8)                  1.7283         calculate D2E/DX2 analytically  !
 ! R3    R(1,9)                  1.0768         calculate D2E/DX2 analytically  !
 ! R4    R(2,3)                  1.4634         calculate D2E/DX2 analytically  !
 ! R5    R(2,10)                 1.3219         calculate D2E/DX2 analytically  !
 ! R6    R(3,4)                  1.0823         calculate D2E/DX2 analytically  !
 ! R7    R(3,5)                  1.3244         calculate D2E/DX2 analytically  !
 ! R8    R(5,6)                  1.0812         calculate D2E/DX2 analytically  !
 ! R9    R(5,7)                  1.0814         calculate D2E/DX2 analytically  !
 ! A1    A(2,1,8)              123.3942         calculate D2E/DX2 analytically  !
 ! A2    A(2,1,9)              121.2689         calculate D2E/DX2 analytically  !
 ! A3    A(8,1,9)              115.3369         calculate D2E/DX2 analytically  !
 ! A4    A(1,2,3)              124.0676         calculate D2E/DX2 analytically  !
 ! A5    A(1,2,10)             120.8363         calculate D2E/DX2 analytically  !
 ! A6    A(3,2,10)             115.0961         calculate D2E/DX2 analytically  !
 ! A7    A(2,3,4)              115.514          calculate D2E/DX2 analytically  !
 ! A8    A(2,3,5)              123.562          calculate D2E/DX2 analytically  !
 ! A9    A(4,3,5)              120.9241         calculate D2E/DX2 analytically  !
 ! A10   A(3,5,6)              121.6538         calculate D2E/DX2 analytically  !
 ! A11   A(3,5,7)              120.7103         calculate D2E/DX2 analytically  !
 ! A12   A(6,5,7)              117.6359         calculate D2E/DX2 analytically  !
 ! D1    D(8,1,2,3)            180.0            calculate D2E/DX2 analytically  !
 ! D2    D(8,1,2,10)             0.0            calculate D2E/DX2 analytically  !
 ! D3    D(9,1,2,3)              0.0            calculate D2E/DX2 analytically  !
 ! D4    D(9,1,2,10)           180.0            calculate D2E/DX2 analytically  !
 ! D5    D(1,2,3,4)              0.0            calculate D2E/DX2 analytically  !
 ! D6    D(1,2,3,5)            180.0            calculate D2E/DX2 analytically  !
 ! D7    D(10,2,3,4)           180.0            calculate D2E/DX2 analytically  !
 ! D8    D(10,2,3,5)             0.0            calculate D2E/DX2 analytically  !
 ! D9    D(2,3,5,6)              0.0            calculate D2E/DX2 analytically  !
 ! D10   D(2,3,5,7)            180.0            calculate D2E/DX2 analytically  !
 ! D11   D(4,3,5,6)            180.0            calculate D2E/DX2 analytically  !
 ! D12   D(4,3,5,7)              0.0            calculate D2E/DX2 analytically  !
 --------------------------------------------------------------------------------
 Trust Radius=3.00D-01 FncErr=1.00D-07 GrdErr=1.00D-07
[...]
 Frequencies --  3355.4102              3422.3324              3423.1686
 Red. masses --     1.0963                 1.1014                 1.1111
 Frc consts  --     7.2724                 7.6007                 7.6710
 IR Inten    --     3.7549                 9.8017                12.0073
  Atom  AN      X      Y      Z        X      Y      Z        X      Y      Z
     1   6     0.00   0.00   0.00    -0.08   0.00   0.00     0.05   0.00   0.00
     2   6     0.00   0.00   0.00     0.00   0.01   0.00     0.00   0.00   0.00
     3   6    -0.09   0.01   0.00     0.00   0.00   0.00     0.01   0.00   0.00
     4   1     0.95  -0.13   0.00    -0.02   0.00   0.00    -0.13   0.02   0.00
     5   6     0.02   0.01   0.00     0.04  -0.03   0.00     0.07  -0.05   0.00
     6   1    -0.25   0.03   0.00    -0.37   0.04   0.00    -0.61   0.07   0.00
     7   1     0.04  -0.09   0.00    -0.12   0.33   0.00    -0.20   0.54   0.00
     8  17     0.00   0.00   0.00     0.00   0.00   0.00     0.00   0.00   0.00
     9   1    -0.05   0.01   0.00     0.85  -0.09   0.00    -0.51   0.05   0.00
    10   9     0.00   0.00   0.00     0.00   0.00   0.00     0.00   0.00   0.00

 -------------------
 - Thermochemistry -
 -------------------
 Temperature   298.150 Kelvin.  Pressure   1.00000 Atm.
 Atom     1 has atomic number  6 and mass  12.00000
 Atom     2 has atomic number  6 and mass  12.00000
 Atom     3 has atomic number  6 and mass  12.00000
 Atom     4 has atomic number  1 and mass   1.00783
 Atom     5 has atomic number  6 and mass  12.00000
 Atom     6 has atomic number  1 and mass   1.00783
 Atom     7 has atomic number  1 and mass   1.00783
 Atom     8 has atomic number 17 and mass  34.96885
 Atom     9 has atomic number  1 and mass   1.00783
 Atom    10 has atomic number  9 and mass  18.99840
 Molecular mass:   105.99856 amu.
 Principal axes and moments of inertia in atomic units:
                           1         2         3
     Eigenvalues --   179.057281261.465171440.52245
           X            0.12931   0.99160   0.00000
           Y            0.99160  -0.12931   0.00000
           Z            0.00000   0.00000   1.00000
 This molecule is an asymmetric top.
 Rotational symmetry number  1.
 Rotational temperatures (Kelvin)      0.48372     0.06866     0.06013
 Rotational constants (GHZ):          10.07913     1.43067     1.25284
 Zero-point vibrational energy     193799.2 (Joules/Mol)
                                   46.31913 (Kcal/Mol)
 Warning -- explicit consideration of   6 degrees of freedom as
           vibrations may cause significant error
 Vibrational temperatures:    163.84   260.01   377.36   430.58   628.36
          (Kelvin)            822.31   970.47  1161.81  1291.56  1299.45
                             1378.13  1552.83  1596.94  1619.31  1849.29
                             2042.48  2109.75  2237.41  2620.82  2746.07
                             4781.72  4827.68  4923.97  4925.17
 
 Zero-point correction=                           0.073814 (Hartree/Particle)
 Thermal correction to Energy=                    0.079744
 Thermal correction to Enthalpy=                  0.080688
 Thermal correction to Gibbs Free Energy=         0.043492
 Sum of electronic and zero-point Energies=           -712.635969
 Sum of electronic and thermal Energies=              -712.630040
 Sum of electronic and thermal Enthalpies=            -712.629095
 Sum of electronic and thermal Free Energies=         -712.666291
 
                     E (Thermal)             CV                S
                      KCal/Mol        Cal/Mol-Kelvin    Cal/Mol-Kelvin
 Total                   50.040             19.877             78.284
 Electronic               0.000              0.000              0.000
 Translational            0.889              2.981             39.892
 Rotational               0.889              2.981             27.278
 Vibrational             48.262             13.915             11.115
 Vibration     1          0.607              1.938              3.202
 Vibration     2          0.630              1.866              2.321
 Vibration     3          0.670              1.742              1.647
 Vibration     4          0.692              1.675              1.421
 Vibration     5          0.797              1.390              0.837
 Vibration     6          0.928              1.093              0.501
                       Q            Log10(Q)             Ln(Q)
 Total Bot       0.988320D-20        -20.005103        -46.063451
 Total V=0       0.885143D+14         13.947014         32.114186
 Vib (Bot)       0.112837D-32        -32.947548        -75.864532
 Vib (Bot)    1  0.179706D+01          0.254563          0.586152
 Vib (Bot)    2  0.111116D+01          0.045777          0.105406
 Vib (Bot)    3  0.739715D+00         -0.130935         -0.301490
 Vib (Bot)    4  0.635736D+00         -0.196723         -0.452971
 Vib (Bot)    5  0.396856D+00         -0.401367         -0.924182
 Vib (Bot)    6  0.268875D+00         -0.570449         -1.313507
 Vib (V=0)       0.101057D+02          1.004568          2.313104
 Vib (V=0)    1  0.236532D+01          0.373890          0.860914
 Vib (V=0)    2  0.171847D+01          0.235143          0.541437
 Vib (V=0)    3  0.139285D+01          0.143904          0.331351
 Vib (V=0)    4  0.130880D+01          0.116874          0.269112
 Vib (V=0)    5  0.113835D+01          0.056277          0.129582
 Vib (V=0)    6  0.106771D+01          0.028453          0.065516
 Electronic      0.100000D+01          0.000000          0.000000
 Translational   0.428948D+08          7.632405         17.574262
 Rotational      0.204193D+06          5.310040         12.226819
 ***** Axes restored to original set *****
 -------------------------------------------------------------------
 Center     Atomic                   Forces (Hartrees/Bohr)
 Number     Number              X              Y              Z
 -------------------------------------------------------------------
      1        6          -0.000190213    0.000183609    0.000000000
      2        6           0.000370855   -0.000573864    0.000000000
      3        6          -0.000280297   -0.000171702    0.000000000
      4        1          -0.000013736    0.000107476    0.000000000
      5        6          -0.000074416    0.000014330    0.000000000
      6        1           0.000070959    0.000067669    0.000000000
      7        1           0.000082695    0.000085817    0.000000000
      8       17           0.000008482   -0.000001043    0.000000000
      9        1           0.000091112    0.000035870    0.000000000
     10        9          -0.000065440    0.000251838    0.000000000
 -------------------------------------------------------------------
 Cartesian Forces:  Max     0.000573864 RMS     0.000159526

 GradGradGradGradGradGradGradGradGradGradGradGradGradGradGradGradGradGrad
 Berny optimization.
 Internal  Forces:  Max     0.000253725 RMS     0.000099615
 Search for a local minimum.
 Step number   1 out of a maximum of    2
 All quantities printed in internal units (Hartrees-Bohrs-Radians)
 Second derivative matrix not updated -- analytic derivatives used.
     Eigenvalues ---    0.00793   0.02642   0.02989   0.03707   0.04382
     Eigenvalues ---    0.05006   0.05319   0.11817   0.12182   0.12691
     Eigenvalues ---    0.15136   0.18673   0.19545   0.20794   0.26968
     Eigenvalues ---    0.31025   0.39781   0.39859   0.40114   0.41089
     Eigenvalues ---    0.41636   0.50928   0.72723   0.744861000.00000
     Eigenvalues --- 1000.000001000.000001000.000001000.000001000.00000
     Eigenvalues --- 1000.000001000.000001000.00000
 Angle between quadratic step and forces=  28.72 degrees.
 Linear search not attempted -- first point.
 Iteration  1 RMS(Cart)=  0.00078844 RMS(Int)=  0.00000032
 Iteration  2 RMS(Cart)=  0.00000049 RMS(Int)=  0.00000000
 ClnCor:  largest displacement from symmetrization is 1.91D-14 for atom     1.
 Variable       Old X    -DE/DX   Delta X   Delta X   Delta X     New X
                                 (Linear)    (Quad)   (Total)
    R1        2.49650  -0.00014   0.00000  -0.00022  -0.00022   2.49628
    R2        3.26609  -0.00001   0.00000  -0.00030  -0.00030   3.26580
    R3        2.03484   0.00001   0.00000   0.00008   0.00008   2.03492
    R4        2.76543  -0.00021   0.00000  -0.00061  -0.00061   2.76482
    R5        2.49810   0.00025   0.00000   0.00079   0.00079   2.49889
    R6        2.04516  -0.00010   0.00000  -0.00025  -0.00025   2.04491
    R7        2.50270   0.00018   0.00000   0.00025   0.00025   2.50295
    R8        2.04320   0.00003   0.00000   0.00006   0.00006   2.04325
    R9        2.04361   0.00008   0.00000   0.00023   0.00023   2.04384
    A1        2.15363   0.00007   0.00000   0.00045   0.00045   2.15408
    A2        2.11654  -0.00013   0.00000  -0.00105  -0.00105   2.11550
    A3        2.01301   0.00006   0.00000   0.00060   0.00060   2.01361
    A4        2.16539   0.00023   0.00000   0.00127   0.00127   2.16666
    A5        2.10899  -0.00004   0.00000  -0.00040  -0.00040   2.10859
    A6        2.00881  -0.00019   0.00000  -0.00087  -0.00087   2.00794
    A7        2.01610   0.00006   0.00000   0.00061   0.00061   2.01671
    A8        2.15656  -0.00005   0.00000  -0.00024  -0.00024   2.15632
    A9        2.11052  -0.00001   0.00000  -0.00037  -0.00037   2.11015
   A10        2.12326   0.00007   0.00000   0.00064   0.00064   2.12390
   A11        2.10679   0.00005   0.00000   0.00034   0.00034   2.10714
   A12        2.05313  -0.00012   0.00000  -0.00098  -0.00098   2.05215
    D1        3.14159   0.00000   0.00000   0.00000   0.00000   3.14159
    D2        0.00000   0.00000   0.00000   0.00000   0.00000   0.00000
    D3        0.00000   0.00000   0.00000   0.00000   0.00000   0.00000
    D4        3.14159   0.00000   0.00000   0.00000   0.00000   3.14159
    D5        0.00000   0.00000   0.00000   0.00000   0.00000   0.00000
    D6        3.14159   0.00000   0.00000   0.00000   0.00000   3.14159
    D7        3.14159   0.00000   0.00000   0.00000   0.00000   3.14159
    D8        0.00000   0.00000   0.00000   0.00000   0.00000   0.00000
    D9        0.00000   0.00000   0.00000   0.00000   0.00000   0.00000
   D10        3.14159   0.00000   0.00000   0.00000   0.00000   3.14159
   D11        3.14159   0.00000   0.00000   0.00000   0.00000   3.14159
   D12        0.00000   0.00000   0.00000   0.00000   0.00000   0.00000
         Item               Value     Threshold  Converged?
 Maximum Force            0.000254     0.000450     YES
 RMS     Force            0.000100     0.000300     YES
 Maximum Displacement     0.001798     0.001800     YES
 RMS     Displacement     0.000788     0.001200     YES
 Predicted change in Energy=-6.900841D-07
 Optimization completed.
    -- Stationary point found.
                           ----------------------------
                           !   Optimized Parameters   !
                           ! (Angstroms and Degrees)  !
 --------------------------                            --------------------------
 ! Name  Definition              Value          Derivative Info.                !
 --------------------------------------------------------------------------------
 ! R1    R(1,2)                  1.3211         -DE/DX =   -0.0001              !
 ! R2    R(1,8)                  1.7283         -DE/DX =    0.0                 !
 ! R3    R(1,9)                  1.0768         -DE/DX =    0.0                 !
 ! R4    R(2,3)                  1.4634         -DE/DX =   -0.0002              !
 ! R5    R(2,10)                 1.3219         -DE/DX =    0.0003              !
 ! R6    R(3,4)                  1.0823         -DE/DX =   -0.0001              !
 ! R7    R(3,5)                  1.3244         -DE/DX =    0.0002              !
 ! R8    R(5,6)                  1.0812         -DE/DX =    0.0                 !
 ! R9    R(5,7)                  1.0814         -DE/DX =    0.0001              !
 ! A1    A(2,1,8)              123.3942         -DE/DX =    0.0001              !
 ! A2    A(2,1,9)              121.2689         -DE/DX =   -0.0001              !
 ! A3    A(8,1,9)              115.3369         -DE/DX =    0.0001              !
 ! A4    A(1,2,3)              124.0676         -DE/DX =    0.0002              !
 ! A5    A(1,2,10)             120.8363         -DE/DX =    0.0                 !
 ! A6    A(3,2,10)             115.0961         -DE/DX =   -0.0002              !
 ! A7    A(2,3,4)              115.514          -DE/DX =    0.0001              !
 ! A8    A(2,3,5)              123.562          -DE/DX =    0.0                 !
 ! A9    A(4,3,5)              120.9241         -DE/DX =    0.0                 !
 ! A10   A(3,5,6)              121.6538         -DE/DX =    0.0001              !
 ! A11   A(3,5,7)              120.7103         -DE/DX =    0.0001              !
 ! A12   A(6,5,7)              117.6359         -DE/DX =   -0.0001              !
 ! D1    D(8,1,2,3)            180.0            -DE/DX =    0.0                 !
 ! D2    D(8,1,2,10)             0.0            -DE/DX =    0.0                 !
 ! D3    D(9,1,2,3)              0.0            -DE/DX =    0.0                 !
 ! D4    D(9,1,2,10)           180.0            -DE/DX =    0.0                 !
 ! D5    D(1,2,3,4)              0.0            -DE/DX =    0.0                 !
 ! D6    D(1,2,3,5)            180.0            -DE/DX =    0.0                 !
 ! D7    D(10,2,3,4)           180.0            -DE/DX =    0.0                 !
 ! D8    D(10,2,3,5)             0.0            -DE/DX =    0.0                 !
 ! D9    D(2,3,5,6)              0.0            -DE/DX =    0.0                 !
 ! D10   D(2,3,5,7)            180.0            -DE/DX =    0.0                 !
 ! D11   D(4,3,5,6)            180.0            -DE/DX =    0.0                 !
 ! D12   D(4,3,5,7)              0.0            -DE/DX =    0.0                 !
 --------------------------------------------------------------------------------
 GradGradGradGradGradGradGradGradGradGradGradGradGradGradGradGradGradGrad

 1\1\GINC-MALLOS66\Freq\RHF\CC-pVDZ\C4H4Cl1F1\MARLIN\26-Oct-2024\0\\#N 
 Geom=AllCheck Guess=TCheck SCRF=Check GenChk RHF/CC-pVDZ Freq\\Title C
 ard Required\\0,1\C,-2.096655087,-1.678430035,0.\C,-1.4007392579,-0.55
 54967005,0.\C,0.0615057405,-0.4972820629,0.\H,0.5661504869,-1.45467708
 74,0.\C,0.7491896026,0.6345536721,0.\H,0.2572527778,1.5973733347,0.\H,
 1.8305665841,0.6237604562,0.\Cl,-3.824317399,-1.7268823375,0.\H,-1.608
 7508652,-2.6383430343,0.\F,-2.0086019227,0.6183929946,0.\\Version=EM64
 L-G09RevA.01\State=1-A'\HF=-712.7097833\RMSD=1.321e-09\RMSF=1.595e-04\
 ZeroPoint=0.0738142\Thermal=0.0797437\Dipole=1.0795591,-0.2751499,0.\D
 ipoleDeriv=0.8258129,0.1372041,0.,-0.0996485,-0.1460597,0.,0.,0.,-0.25
 3682,0.3773968,-0.2789005,0.,0.1489034,1.1634348,0.,0.,0.,0.2423831,0.
 1583411,0.1008445,0.,-0.1928659,-0.030477,0.,0.,0.,-0.1675017,0.014928
 7,0.0083536,0.,0.0544153,-0.0391349,0.,0.,0.,0.1466049,-0.0568768,-0.1
 333372,0.,-0.0253011,0.0299405,0.,0.,0.,-0.2363074,0.044974,0.0644149,
 0.,0.0317394,0.0132876,0.,0.,0.,0.1509229,-0.0762325,-0.0178507,0.,0.0
 157537,0.0606157,0.,0.,0.,0.1355034,-0.8318874,-0.3052153,0.,0.0172059
 ,-0.1108537,0.,0.,0.,-0.0487275,-0.0909821,0.0291354,0.,0.0418093,0.08
 14485,0.,0.,0.,0.1798207,-0.3654748,0.3953513,0.,0.0079884,-1.0222018,
 0.,0.,0.,-0.1490164\Polar=79.7618895,26.801168,63.8482971,0.,0.,22.961
 6724\HyperPolar=236.3869618,89.777234,88.9540466,28.0334422,0.,0.,0.,6
 .2713928,1.659598,0.\PG=CS [SG(C4H4Cl1F1)]\NImag=0\\0.62498428,0.11470
 400,0.93771964,0.,0.,0.10505079,-0.25752146,-0.22584348,0.,0.77028580,
 -0.25924195,-0.49388227,0.,0.14575629,0.95077957,0.,0.,-0.06882639,0.,
 0.,0.18376931,-0.02704725,-0.01796234,0.,-0.29180269,0.00675020,0.,0.7
 4200492,-0.03582577,0.00109573,0.,-0.00857958,-0.11083643,0.,0.1086702
 7,0.96669815,0.,0.,0.01081759,0.,0.,-0.07924451,0.,0.,0.15154067,0.000
 30664,-0.00059920,0.,-0.00647373,0.03170888,0.,-0.13824383,0.12769509,
 0.,0.13989530,-0.00062067,-0.00064655,0.,-0.00338582,0.00257585,0.,0.1
 2880146,-0.30495379,0.,-0.13617924,0.32390112,0.,0.,-0.00085909,0.,0.,
 0.00170576,0.,0.,-0.04633072,0.,0.,0.03068505,-0.00173829,0.00625416,0
 .,-0.02966063,-0.04353933,0.,-0.26829132,-0.22690990,0.,0.01400873,0.0
 1748375,0.,0.80312770,0.00591095,0.00496991,0.,-0.01812296,0.00239241,
 0.,-0.22062306,-0.51695916,0.,-0.01968526,-0.02174136,0.,0.11397993,0.
 91382334,0.,0.,0.00090309,0.,0.,0.00765478,0.,0.,-0.06255169,0.,0.,0.0
 0742229,0.,0.,0.13725729,0.00002076,0.00029150,0.,0.00075273,-0.000941
 88,0.,0.01523957,-0.01780872,0.,-0.00161841,-0.00364721,0.,-0.13537362
 ,0.13341973,0.,0.13169347,-0.00018126,0.00003021,0.,0.00262310,-0.0019
 1535,0.,0.01741960,-0.02070992,0.,-0.00369157,-0.00291231,0.,0.1250926
 3,-0.31381396,0.,-0.13849099,0.33121485,0.,0.,0.00027922,0.,0.,-0.0084
 6124,0.,0.,0.00780456,0.,0.,0.01300010,0.,0.,-0.04592111,0.,0.,0.02883
 970,-0.00050056,0.00007052,0.,0.00107647,-0.00197375,0.,-0.01234879,0.
 00506597,0.,0.00122311,-0.00026423,0.,-0.38126974,0.00468117,0.,-0.008
 04326,-0.00301764,0.,0.39995073,-0.00096882,0.00072469,0.,-0.00115622,
 -0.00708067,0.,-0.03385115,0.00500757,0.,0.00018335,0.00135194,0.,0.01
 223971,-0.06697176,0.,0.02728969,0.00479090,0.,-0.00387913,0.06067826,
 0.,0.,-0.00034230,0.,0.,0.01436943,0.,0.,0.00701909,0.,0.,-0.00903685,
 0.,0.,-0.04385061,0.,0.,0.00450254,0.,0.,0.02823273,-0.22639024,-0.007
 11787,0.,-0.04707738,0.01299104,0.,0.00527660,-0.00567258,0.,0.0003024
 9,0.00039193,0.,-0.00357611,0.00005069,0.,-0.00002921,-0.00000119,0.,-
 0.00027420,-0.00054217,0.,0.28909351,0.00099760,-0.04730809,0.,-0.0273
 0918,0.00386157,0.,0.00061451,-0.00363949,0.,-0.00018267,0.00027140,0.
 ,-0.00145448,0.00035523,0.,0.00006414,0.00006887,0.,-0.00014932,-0.000
 25897,0.,0.01197568,0.03525075,0.,0.,-0.02382387,0.,0.,0.00842778,0.,0
 .,0.00831135,0.,0.,-0.00021652,0.,0.,0.00015616,0.,0.,0.00030196,0.,0.
 ,-0.00115270,0.,0.,0.01189286,-0.12018114,0.13928283,0.,0.01417602,-0.
 01298317,0.,-0.00041317,-0.00094917,0.,-0.00060099,-0.00086923,0.,0.00
 010646,0.00022644,0.,0.00006946,0.00003086,0.,-0.00003574,0.00001171,0
 .,-0.02467966,0.01917366,0.,0.13279551,0.12975172,-0.33452486,0.,0.018
 28425,-0.01409192,0.,0.00144758,0.00025891,0.,-0.00088649,0.00049257,0
 .,-0.00032399,0.00030635,0.,0.00013027,0.00015867,0.,-0.00001985,-0.00
 003223,0.,-0.00772840,0.00787856,0.,-0.13749239,0.34324860,0.,0.,-0.03
 516393,0.,0.,-0.00028236,0.,0.,-0.00545363,0.,0.,0.00043343,0.,0.,0.00
 000264,0.,0.,0.00014645,0.,0.,0.00043622,0.,0.,0.00257970,0.,0.,0.0246
 8649,0.00806726,-0.00908011,0.,-0.15375511,0.12147366,0.,-0.02437403,0
 .05431439,0.,-0.00879930,-0.00171075,0.,0.00266682,0.00016237,0.,-0.00
 271149,0.00021645,0.,0.00022199,0.00067304,0.,0.00735419,-0.00372994,0
 .,-0.00123675,-0.00316269,0.,0.17256641,0.04547421,-0.06817841,0.,0.11
 773360,-0.33180277,0.,0.00873294,-0.01596158,0.,0.00163710,0.00166115,
 0.,-0.00282248,-0.00236100,0.,-0.00030655,0.00308803,0.,-0.00051374,0.
 00179027,0.,-0.00434713,0.00352016,0.,-0.00643154,-0.00369465,0.,-0.15
 915641,0.41193879,0.,0.,0.01196490,0.,0.,-0.05911254,0.,0.,0.00808729,
 0.,0.,0.00319656,0.,0.,-0.00107283,0.,0.,-0.00049217,0.,0.,-0.00017754
 ,0.,0.,-0.00647673,0.,0.,0.01261500,0.,0.,0.03146807\\0.00019021,-0.00
 018361,0.,-0.00037085,0.00057386,0.,0.00028030,0.00017170,0.,0.0000137
 4,-0.00010748,0.,0.00007442,-0.00001433,0.,-0.00007096,-0.00006767,0.,
 -0.00008270,-0.00008582,0.,-0.00000848,0.00000104,0.,-0.00009111,-0.00
 003587,0.,0.00006544,-0.00025184,0.\\\@


 EDUCATION DOESN'T COST 
           ... IT PAYS!

 -- POSTMARK, UNIV. OF MISSISSIPPI, DEC 78
 Job cpu time:  0 days  0 hours  1 minutes 36.1 seconds.
 File lengths (MBytes):  RWF=     19 Int=      0 D2E=      0 Chk=      2 Scr=      1
 Normal termination of Gaussian 09 at Sat Oct 26 20:13:28 2024.
