 Entering Gaussian System, Link 0=g09
 Initial command:
 /u/local/G09/g09/l1.exe /tmp/marlin/23004.mallos00.local/Gau-15768.inp -scrdir=/tmp/marlin/23004.mallos00.local/
 Entering Link 1 = /u/local/G09/g09/l1.exe PID=     15770.
  
 Copyright (c) 1988,1990,1992,1993,1995,1998,2003,2009, Gaussian, Inc.
                  All Rights Reserved.
  
 This is part of the Gaussian(R) 09 program.  It is based on
 the Gaussian(R) 03 system (copyright 2003, Gaussian, Inc.),
 the Gaussian(R) 98 system (copyright 1998, Gaussian, Inc.),
 the Gaussian(R) 94 system (copyright 1995, Gaussian, Inc.),
 the Gaussian 92(TM) system (copyright 1992, Gaussian, Inc.),
 the Gaussian 90(TM) system (copyright 1990, Gaussian, Inc.),
 the Gaussian 88(TM) system (copyright 1988, Gaussian, Inc.),
 the Gaussian 86(TM) system (copyright 1986, Carnegie Mellon
 University), and the Gaussian 82(TM) system (copyright 1983,
 Carnegie Mellon University). Gaussian is a federally registered
 trademark of Gaussian, Inc.
  
 This software contains proprietary and confidential information,
 including trade secrets, belonging to Gaussian, Inc.
  
 This software is provided under written license and may be
 used, copied, transmitted, or stored only in accord with that
 written license.
  
 The following legend is applicable only to US Government
 contracts under FAR:
  
                    RESTRICTED RIGHTS LEGEND
  
 Use, reproduction and disclosure by the US Government is
 subject to restrictions as set forth in subparagraphs (a)
 and (c) of the Commercial Computer Software - Restricted
 Rights clause in FAR 52.227-19.
  
 Gaussian, Inc.
 340 Quinnipiac St., Bldg. 40, Wallingford CT 06492
  
  
 ---------------------------------------------------------------
 Warning -- This program may not be used in any manner that
 competes with the business of Gaussian, Inc. or will provide
 assistance to any competitor of Gaussian, Inc.  The licensee
 of this program is prohibited from giving any competitor of
 Gaussian, Inc. access to this program.  By using this program,
 the user acknowledges that Gaussian, Inc. is engaged in the
 business of creating and licensing software in the field of
 computational chemistry and represents and warrants to the
 licensee that it is not a competitor of Gaussian, Inc. and that
 it will not use this program in any manner prohibited above.
 ---------------------------------------------------------------
  

 Cite this work as:
 Gaussian 09, Revision A.01,
 M. J. Frisch, G. W. Trucks, H. B. Schlegel, G. E. Scuseria, 
 M. A. Robb, J. R. Cheeseman, G. Scalmani, V. Barone, B. Mennucci, 
 G. A. Petersson, H. Nakatsuji, M. Caricato, X. Li, H. P. Hratchian, 
 A. F. Izmaylov, J. Bloino, G. Zheng, J. L. Sonnenberg, M. Hada, 
 M. Ehara, K. Toyota, R. Fukuda, J. Hasegawa, M. Ishida, T. Nakajima, 
 Y. Honda, O. Kitao, H. Nakai, T. Vreven, J. A. Montgomery, Jr., 
 J. E. Peralta, F. Ogliaro, M. Bearpark, J. J. Heyd, E. Brothers, 
 K. N. Kudin, V. N. Staroverov, R. Kobayashi, J. Normand, 
 K. Raghavachari, A. Rendell, J. C. Burant, S. S. Iyengar, J. Tomasi, 
 M. Cossi, N. Rega, J. M. Millam, M. Klene, J. E. Knox, J. B. Cross, 
 V. Bakken, C. Adamo, J. Jaramillo, R. Gomperts, R. E. Stratmann, 
 O. Yazyev, A. J. Austin, R. Cammi, C. Pomelli, J. W. Ochterski, 
 R. L. Martin, K. Morokuma, V. G. Zakrzewski, G. A. Voth, 
 P. Salvador, J. J. Dannenberg, S. Dapprich, A. D. Daniels, 
 O. Farkas, J. B. Foresman, J. V. Ortiz, J. Cioslowski, 
 and D. J. Fox, Gaussian, Inc., Wallingford CT, 2009.
 
 ******************************************
 Gaussian 09:  EM64L-G09RevA.01  8-May-2009
                26-Oct-2024 
 ******************************************
 %mem=206GB
 %nproc=20
 Will use up to   20 processors via shared memory.
 %chk=3-base3.chk
 --------------------------------------------------
 # opt freq=noraman hf/6-31G(d,p) geom=connectivity
 --------------------------------------------------
 1/18=20,19=15,38=1,57=2/1,3;
 2/9=110,12=2,17=6,18=5,40=1/2;
 3/5=1,6=6,7=101,11=9,16=1,25=1,30=1,71=1/1,2,3;
 4//1;
 5/5=2,38=5/2;
 6/7=2,8=2,9=2,10=2,28=1/1;
 7//1,2,3,16;
 1/18=20,19=15/3(2);
 2/9=110/2;
 99//99;
 2/9=110/2;
 3/5=1,6=6,7=101,11=9,16=1,25=1,30=1,71=1/1,2,3;
 4/5=5,16=3/1;
 5/5=2,38=5/2;
 7//1,2,3,16;
 1/18=20,19=15/3(-5);
 2/9=110/2;
 6/7=2,8=2,9=2,10=2,19=2,28=1/1;
 99/9=1/99;
 -------------------
 Title Card Required
 -------------------
 Symbolic Z-matrix:
 Charge =  0 Multiplicity = 1
 C                    -2.1124   -1.70543   0. 
 C                    -1.43713  -0.53045   0. 
 C                     0.10287  -0.53045   0. 
 H                     0.63603  -1.45815   0. 
 C                     0.78511   0.6405    0. 
 H                     0.25747   1.57135   0. 
 H                     1.8551    0.63414   0. 
 Cl                   -3.8724   -1.70543   0. 
 H                    -1.57924  -2.63313   0. 
 F                    -2.10981   0.64002   0. 
 

 GradGradGradGradGradGradGradGradGradGradGradGradGradGradGradGradGradGrad
 Berny optimization.
 Initialization pass.
                           ----------------------------
                           !    Initial Parameters    !
                           ! (Angstroms and Degrees)  !
 --------------------------                            --------------------------
 ! Name  Definition              Value          Derivative Info.                !
 --------------------------------------------------------------------------------
 ! R1    R(1,2)                  1.3552         estimate D2E/DX2                !
 ! R2    R(1,8)                  1.76           estimate D2E/DX2                !
 ! R3    R(1,9)                  1.07           estimate D2E/DX2                !
 ! R4    R(2,3)                  1.54           estimate D2E/DX2                !
 ! R5    R(2,10)                 1.35           estimate D2E/DX2                !
 ! R6    R(3,4)                  1.07           estimate D2E/DX2                !
 ! R7    R(3,5)                  1.3552         estimate D2E/DX2                !
 ! R8    R(5,6)                  1.07           estimate D2E/DX2                !
 ! R9    R(5,7)                  1.07           estimate D2E/DX2                !
 ! A1    A(2,1,8)              119.8865         estimate D2E/DX2                !
 ! A2    A(2,1,9)              120.2269         estimate D2E/DX2                !
 ! A3    A(8,1,9)              119.8865         estimate D2E/DX2                !
 ! A4    A(1,2,3)              119.8865         estimate D2E/DX2                !
 ! A5    A(1,2,10)             120.2269         estimate D2E/DX2                !
 ! A6    A(3,2,10)             119.8865         estimate D2E/DX2                !
 ! A7    A(2,3,4)              119.8865         estimate D2E/DX2                !
 ! A8    A(2,3,5)              120.2269         estimate D2E/DX2                !
 ! A9    A(4,3,5)              119.8865         estimate D2E/DX2                !
 ! A10   A(3,5,6)              120.2269         estimate D2E/DX2                !
 ! A11   A(3,5,7)              119.8865         estimate D2E/DX2                !
 ! A12   A(6,5,7)              119.8865         estimate D2E/DX2                !
 ! D1    D(8,1,2,3)            180.0            estimate D2E/DX2                !
 ! D2    D(8,1,2,10)             0.0            estimate D2E/DX2                !
 ! D3    D(9,1,2,3)              0.0            estimate D2E/DX2                !
 ! D4    D(9,1,2,10)           180.0            estimate D2E/DX2                !
 ! D5    D(1,2,3,4)              0.0            estimate D2E/DX2                !
 ! D6    D(1,2,3,5)            180.0            estimate D2E/DX2                !
 ! D7    D(10,2,3,4)           180.0            estimate D2E/DX2                !
 ! D8    D(10,2,3,5)             0.0            estimate D2E/DX2                !
 ! D9    D(2,3,5,6)              0.0            estimate D2E/DX2                !
 ! D10   D(2,3,5,7)            180.0            estimate D2E/DX2                !
 ! D11   D(4,3,5,6)            180.0            estimate D2E/DX2                !
 ! D12   D(4,3,5,7)              0.0            estimate D2E/DX2                !
 --------------------------------------------------------------------------------
 Trust Radius=3.00D-01 FncErr=1.00D-07 GrdErr=1.00D-07
 Number of steps in this run=  43 maximum allowed number of steps= 100.
 GradGradGradGradGradGradGradGradGradGradGradGradGradGradGradGradGradGrad

                          Input orientation:                          
 ---------------------------------------------------------------------
 Center     Atomic      Atomic             Coordinates (Angstroms)
 Number     Number       Type             X           Y           Z
 ---------------------------------------------------------------------
      1          6           0       -2.112403   -1.705426    0.000000
      2          6           0       -1.437129   -0.530449    0.000000
      3          6           0        0.102871   -0.530449    0.000000
      4          1           0        0.636035   -1.458154    0.000000
      5          6           0        0.785114    0.640495    0.000000
      6          1           0        0.257472    1.571352    0.000000
      7          1           0        1.855096    0.634138    0.000000
      8         17           0       -3.872403   -1.705426    0.000000
      9          1           0       -1.579240   -2.633131    0.000000
     10          9           0       -2.109812    0.640020    0.000000
 ---------------------------------------------------------------------
                    Distance matrix (angstroms):
                    1          2          3          4          5
     1  C    0.000000
     2  C    1.355200   0.000000
     3  C    2.507591   1.540000   0.000000
     4  H    2.759539   2.271265   1.070000   0.000000
     5  C    3.728131   2.511867   1.355200   2.103938   0.000000
     6  H    4.043956   2.699859   2.107479   3.053066   1.070000
     7  H    4.605932   3.492135   2.103938   2.421527   1.070000
     8  Cl   1.760000   2.703911   4.145284   4.515214   5.214961
     9  H    1.070000   2.107479   2.692725   2.507591   4.038168
    10  F    2.345448   1.350000   2.503191   3.455721   2.894927
                    6          7          8          9         10
     6  H    0.000000
     7  H    1.852234   0.000000
     8  Cl   5.271920   6.186906   0.000000
     9  H    4.588157   4.740222   2.473709   0.000000
    10  F    2.543897   3.964912   2.933913   3.315875   0.000000
 Stoichiometry    C4H4ClF
 Framework group  CS[SG(C4H4ClF)]
 Deg. of freedom    17
 Full point group                 CS      NOp   2
 Largest Abelian subgroup         CS      NOp   2
 Largest concise Abelian subgroup C1      NOp   1
                         Standard orientation:                         
 ---------------------------------------------------------------------
 Center     Atomic      Atomic             Coordinates (Angstroms)
 Number     Number       Type             X           Y           Z
 ---------------------------------------------------------------------
      1          6           0        1.004077   -0.267605    0.000000
      2          6           0       -0.170900    0.407669    0.000000
      3          6           0       -0.170900    1.947669    0.000000
      4          1           0        0.756805    2.480833    0.000000
      5          6           0       -1.341844    2.629912    0.000000
      6          1           0       -2.272701    2.102270    0.000000
      7          1           0       -1.335487    3.699893    0.000000
      8         17           0        1.004077   -2.027605    0.000000
      9          1           0        1.931782    0.265558    0.000000
     10          9           0       -1.341369   -0.265014    0.000000
 ---------------------------------------------------------------------
 Rotational constants (GHZ):      9.2917918      1.4010922      1.2175066
 Standard basis: 6-31G(d,p) (6D, 7F)
 There are    85 symmetry adapted basis functions of A'  symmetry.
 There are    29 symmetry adapted basis functions of A"  symmetry.
 Integral buffers will be    131072 words long.
 Raffenetti 1 integral format.
 Two-electron integral symmetry is turned on.
   114 basis functions,   220 primitive gaussians,   114 cartesian basis functions
    27 alpha electrons       27 beta electrons
       nuclear repulsion energy       258.7779846651 Hartrees.
 NAtoms=   10 NActive=   10 NUniq=   10 SFac= 7.50D-01 NAtFMM=   80 NAOKFM=F Big=F
 One-electron integrals computed using PRISM.
 NBasis=   114 RedAO= T  NBF=    85    29
 NBsUse=   114 1.00D-06 NBFU=    85    29
 Harris functional with IExCor=  205 diagonalized for initial guess.
 ExpMin= 1.43D-01 ExpMax= 2.52D+04 ExpMxC= 3.78D+03 IAcc=1 IRadAn=         1 AccDes= 0.00D+00
 HarFok:  IExCor=  205 AccDes= 0.00D+00 IRadAn=         1 IDoV= 1
 ScaDFX=  1.000000  1.000000  1.000000  1.000000
 FoFCou: FMM=F IPFlag=           0 FMFlag=      100000 FMFlg1=           0
         NFxFlg=           0 DoJE=T BraDBF=F KetDBF=T FulRan=T
         Omega=  0.000000  0.000000  1.000000  0.000000  0.000000 ICntrl=     500 IOpCl=  0
         NMat0=    1 NMatS0=    1 NMatT0=    0 NMatD0=    1 NMtDS0=    0 NMtDT0=    0
         I1Cent=           4 NGrid=           0.
 Petite list used in FoFCou.
 Initial guess orbital symmetries:
       Occupied  (A') (A') (A') (A') (A') (A') (A') (A') (A') (A")
                 (A') (A') (A') (A') (A') (A') (A') (A') (A') (A")
                 (A') (A') (A') (A") (A") (A') (A")
       Virtual   (A") (A') (A") (A') (A') (A') (A') (A') (A') (A')
                 (A') (A') (A') (A') (A") (A') (A") (A') (A") (A')
                 (A') (A') (A") (A") (A') (A') (A') (A') (A") (A")
                 (A') (A') (A') (A') (A') (A') (A') (A') (A') (A")
                 (A") (A') (A") (A') (A") (A") (A') (A") (A') (A")
                 (A') (A') (A') (A") (A') (A') (A') (A') (A') (A")
                 (A') (A') (A") (A') (A") (A') (A") (A') (A") (A")
                 (A') (A") (A') (A') (A') (A') (A') (A') (A') (A')
                 (A') (A') (A') (A') (A') (A') (A')
 The electronic state of the initial guess is 1-A'.
 Requested convergence on RMS density matrix=1.00D-08 within 128 cycles.
 Requested convergence on MAX density matrix=1.00D-06.
 Requested convergence on             energy=1.00D-06.
 No special actions if energy rises.
 Keep R1 ints in memory in canonical form, NReq=22367610.
 SCF Done:  E(RHF) =  -712.664359039     A.U. after   14 cycles
             Convg  =    0.3508D-08             -V/T =  2.0014

 **********************************************************************

            Population analysis using the SCF density.

 **********************************************************************

 Orbital symmetries:
       Occupied  (A') (A') (A') (A') (A') (A') (A') (A') (A') (A")
                 (A') (A') (A') (A') (A') (A') (A') (A") (A') (A')
                 (A') (A') (A') (A") (A') (A") (A")
       Virtual   (A") (A') (A") (A') (A') (A') (A') (A') (A') (A')
                 (A') (A') (A') (A") (A') (A') (A") (A') (A') (A")
                 (A') (A") (A") (A') (A') (A') (A') (A') (A') (A')
                 (A") (A") (A') (A') (A') (A') (A') (A') (A') (A")
                 (A") (A') (A') (A") (A") (A") (A') (A") (A') (A")
                 (A') (A') (A') (A") (A') (A') (A') (A') (A') (A')
                 (A") (A") (A') (A') (A") (A') (A") (A') (A") (A")
                 (A") (A') (A') (A') (A') (A') (A') (A') (A') (A')
                 (A') (A') (A') (A') (A') (A') (A')
 The electronic state is 1-A'.
 Alpha  occ. eigenvalues -- -104.82981 -26.33102 -11.36275 -11.30482 -11.27542
 Alpha  occ. eigenvalues --  -11.25531 -10.56238  -8.03181  -8.02837  -8.02835
 Alpha  occ. eigenvalues --   -1.63583  -1.15233  -1.08306  -0.99964  -0.83383
 Alpha  occ. eigenvalues --   -0.80624  -0.73411  -0.70052  -0.67948  -0.63456
 Alpha  occ. eigenvalues --   -0.60485  -0.56872  -0.52984  -0.50506  -0.45336
 Alpha  occ. eigenvalues --   -0.43142  -0.33317
 Alpha virt. eigenvalues --    0.10465   0.19778   0.22871   0.23022   0.27522
 Alpha virt. eigenvalues --    0.30120   0.32214   0.38069   0.44893   0.47327
 Alpha virt. eigenvalues --    0.51480   0.57929   0.63469   0.64386   0.66849
 Alpha virt. eigenvalues --    0.67580   0.73369   0.74347   0.77669   0.79851
 Alpha virt. eigenvalues --    0.83430   0.87270   0.89312   0.89353   1.01897
 Alpha virt. eigenvalues --    1.03321   1.07494   1.08443   1.12579   1.13370
 Alpha virt. eigenvalues --    1.13470   1.15303   1.16096   1.19721   1.24962
 Alpha virt. eigenvalues --    1.32051   1.34463   1.39660   1.46204   1.50461
 Alpha virt. eigenvalues --    1.55096   1.55598   1.57713   1.62285   1.69991
 Alpha virt. eigenvalues --    1.72937   1.77620   1.91202   1.92365   2.08726
 Alpha virt. eigenvalues --    2.10710   2.15214   2.17535   2.19206   2.25693
 Alpha virt. eigenvalues --    2.27325   2.29114   2.36232   2.37391   2.41004
 Alpha virt. eigenvalues --    2.43651   2.55958   2.56564   2.66005   2.71556
 Alpha virt. eigenvalues --    2.77184   2.78726   2.81277   2.84919   2.91433
 Alpha virt. eigenvalues --    2.98994   2.99889   3.05350   3.16484   3.24240
 Alpha virt. eigenvalues --    3.31686   3.47985   3.65238   3.77855   3.83931
 Alpha virt. eigenvalues --    4.04006   4.45884   4.55826   4.66238   4.78468
 Alpha virt. eigenvalues --    4.95897   5.48268
          Condensed to atoms (all electrons):
              1          2          3          4          5          6
     1  C    5.309852   0.555563  -0.071933   0.000314   0.002469   0.000347
     2  C    0.555563   4.468959   0.393270  -0.025234  -0.054397  -0.003906
     3  C   -0.071933   0.393270   4.955384   0.400537   0.611050  -0.043124
     4  H    0.000314  -0.025234   0.400537   0.484259  -0.030012   0.002582
     5  C    0.002469  -0.054397   0.611050  -0.030012   4.916144   0.412501
     6  H    0.000347  -0.003906  -0.043124   0.002582   0.412501   0.486819
     7  H   -0.000081   0.002320  -0.037387  -0.002632   0.404605  -0.023320
     8  Cl   0.201759  -0.077506   0.003322  -0.000041  -0.000083  -0.000005
     9  H    0.403633  -0.038234   0.000413   0.001114  -0.000045  -0.000003
    10  F   -0.053436   0.284235  -0.036069   0.000812   0.003100   0.004053
              7          8          9         10
     1  C   -0.000081   0.201759   0.403633  -0.053436
     2  C    0.002320  -0.077506  -0.038234   0.284235
     3  C   -0.037387   0.003322   0.000413  -0.036069
     4  H   -0.002632  -0.000041   0.001114   0.000812
     5  C    0.404605  -0.000083  -0.000045   0.003100
     6  H   -0.023320  -0.000005  -0.000003   0.004053
     7  H    0.507751   0.000001  -0.000006   0.000076
     8  Cl   0.000001  16.906800  -0.028043   0.004284
     9  H   -0.000006  -0.028043   0.467606   0.001194
    10  F    0.000076   0.004284   0.001194   9.160309
 Mulliken atomic charges:
              1
     1  C   -0.348487
     2  C    0.494929
     3  C   -0.175462
     4  H    0.168301
     5  C   -0.265332
     6  H    0.164057
     7  H    0.148673
     8  Cl  -0.010489
     9  H    0.192370
    10  F   -0.368559
 Sum of Mulliken atomic charges =   0.00000
 Mulliken charges with hydrogens summed into heavy atoms:
              1
     1  C   -0.156116
     2  C    0.494929
     3  C   -0.007162
     5  C    0.047397
     8  Cl  -0.010489
    10  F   -0.368559
 Sum of Mulliken charges with hydrogens summed into heavy atoms =   0.00000
 Electronic spatial extent (au):  <R**2>=            884.3014
 Charge=              0.0000 electrons
 Dipole moment (field-independent basis, Debye):
    X=              0.6250    Y=              3.1910    Z=              0.0000  Tot=              3.2516
 Quadrupole moment (field-independent basis, Debye-Ang):
   XX=            -39.1179   YY=            -38.3465   ZZ=            -44.0531
   XY=              0.4609   XZ=              0.0000   YZ=              0.0000
 Traceless Quadrupole moment (field-independent basis, Debye-Ang):
   XX=              1.3879   YY=              2.1594   ZZ=             -3.5473
   XY=              0.4609   XZ=              0.0000   YZ=              0.0000
 Octapole moment (field-independent basis, Debye-Ang**2):
  XXX=             -6.4967  YYY=              7.0944  ZZZ=              0.0000  XYY=             -7.7333
  XXY=              5.6157  XXZ=              0.0000  XZZ=             -2.4582  YZZ=             -6.7555
  YYZ=              0.0000  XYZ=              0.0000
 Hexadecapole moment (field-independent basis, Debye-Ang**3):
 XXXX=           -286.0756 YYYY=           -708.9467 ZZZZ=            -45.3315 XXXY=            151.7827
 XXXZ=              0.0000 YYYX=            140.0669 YYYZ=              0.0000 ZZZX=              0.0000
 ZZZY=              0.0000 XXYY=           -174.6054 XXZZ=            -61.0963 YYZZ=           -153.3497
 XXYZ=              0.0000 YYXZ=              0.0000 ZZXY=             55.6968
 N-N= 2.587779846651D+02 E-N=-2.207140915199D+03  KE= 7.116483527957D+02
 Symmetry A'   KE= 6.554488760356D+02
 Symmetry A"   KE= 5.619947676014D+01
 Calling FoFJK, ICntrl=      2127 FMM=F ISym2X=1 I1Cent= 0 IOpClX= 0 NMat=1 NMatS=1 NMatT=0.
 ***** Axes restored to original set *****
 -------------------------------------------------------------------
 Center     Atomic                   Forces (Hartrees/Bohr)
 Number     Number              X              Y              Z
 -------------------------------------------------------------------
      1        6           0.003479030    0.054834689    0.000000000
      2        6           0.006608242   -0.041870854    0.000000000
      3        6          -0.022370013    0.064350349    0.000000000
      4        1          -0.006779881   -0.006423462    0.000000000
      5        6          -0.024790097   -0.043357105    0.000000000
      6        1           0.001468281    0.004057533    0.000000000
      7        1           0.003028185    0.002915831    0.000000000
      8       17           0.019049486   -0.007484131    0.000000000
      9        1          -0.006937882   -0.002642722    0.000000000
     10        9           0.027244649   -0.024380128    0.000000000
 -------------------------------------------------------------------
 Cartesian Forces:  Max     0.064350349 RMS     0.021514143

 GradGradGradGradGradGradGradGradGradGradGradGradGradGradGradGradGradGrad
 Berny optimization.
 Internal  Forces:  Max     0.049443525 RMS     0.016924887
 Search for a local minimum.
 Step number   1 out of a maximum of   43
 All quantities printed in internal units (Hartrees-Bohrs-Radians)
 Mixed Optimization -- RFO/linear search
 Second derivative matrix not updated -- first step.
     Eigenvalues ---    0.00237   0.01459   0.01463   0.02681   0.02681
     Eigenvalues ---    0.02681   0.02681   0.16000   0.16000   0.16000
     Eigenvalues ---    0.16000   0.22000   0.22000   0.25000   0.25000
     Eigenvalues ---    0.28519   0.29539   0.37230   0.37230   0.37230
     Eigenvalues ---    0.37230   0.53930   0.53930   0.550211000.00000
     Eigenvalues --- 1000.000001000.000001000.000001000.000001000.00000
     Eigenvalues --- 1000.000001000.000001000.00000
 RFO step:  Lambda=-2.43158037D-02 EMin= 2.36824121D-03
 Linear search not attempted -- first point.
 Iteration  1 RMS(Cart)=  0.06569951 RMS(Int)=  0.00130244
 Iteration  2 RMS(Cart)=  0.00187661 RMS(Int)=  0.00000109
 Iteration  3 RMS(Cart)=  0.00000163 RMS(Int)=  0.00000000
 Iteration  4 RMS(Cart)=  0.00000000 RMS(Int)=  0.00000000
 ClnCor:  largest displacement from symmetrization is 4.97D-16 for atom     6.
 Variable       Old X    -DE/DX   Delta X   Delta X   Delta X     New X
                                 (Linear)    (Quad)   (Total)
    R1        2.56096  -0.04653   0.00000  -0.08256  -0.08256   2.47840
    R2        3.32592  -0.01905   0.00000  -0.05958  -0.05958   3.26633
    R3        2.02201  -0.00117   0.00000  -0.00294  -0.00294   2.01907
    R4        2.91018  -0.04944   0.00000  -0.15975  -0.15975   2.75043
    R5        2.55113  -0.03471   0.00000  -0.06042  -0.06042   2.49071
    R6        2.02201   0.00219   0.00000   0.00552   0.00552   2.02753
    R7        2.56096  -0.04165   0.00000  -0.07390  -0.07390   2.48705
    R8        2.02201   0.00281   0.00000   0.00707   0.00707   2.02908
    R9        2.02201   0.00301   0.00000   0.00759   0.00759   2.02960
    A1        2.09241   0.01165   0.00000   0.04769   0.04769   2.14011
    A2        2.09836   0.00159   0.00000   0.01637   0.01637   2.11473
    A3        2.09241  -0.01324   0.00000  -0.06406  -0.06406   2.02835
    A4        2.09241   0.01800   0.00000   0.06562   0.06562   2.15804
    A5        2.09836   0.00563   0.00000   0.02054   0.02054   2.11889
    A6        2.09241  -0.02364   0.00000  -0.08616  -0.08616   2.00625
    A7        2.09241  -0.01314   0.00000  -0.06601  -0.06601   2.02641
    A8        2.09836   0.00792   0.00000   0.03241   0.03241   2.13077
    A9        2.09241   0.00522   0.00000   0.03359   0.03359   2.12601
   A10        2.09836   0.00244   0.00000   0.01325   0.01325   2.11160
   A11        2.09241   0.00175   0.00000   0.00947   0.00947   2.10188
   A12        2.09241  -0.00419   0.00000  -0.02272  -0.02272   2.06970
    D1        3.14159   0.00000   0.00000   0.00000   0.00000   3.14159
    D2        0.00000   0.00000   0.00000   0.00000   0.00000   0.00000
    D3        0.00000   0.00000   0.00000   0.00000   0.00000   0.00000
    D4        3.14159   0.00000   0.00000   0.00000   0.00000   3.14159
    D5        0.00000   0.00000   0.00000   0.00000   0.00000   0.00000
    D6        3.14159   0.00000   0.00000   0.00000   0.00000   3.14159
    D7        3.14159   0.00000   0.00000   0.00000   0.00000   3.14159
    D8        0.00000   0.00000   0.00000   0.00000   0.00000   0.00000
    D9        0.00000   0.00000   0.00000   0.00000   0.00000   0.00000
   D10        3.14159   0.00000   0.00000   0.00000   0.00000   3.14159
   D11        3.14159   0.00000   0.00000   0.00000   0.00000   3.14159
   D12        0.00000   0.00000   0.00000   0.00000   0.00000   0.00000
         Item               Value     Threshold  Converged?
 Maximum Force            0.049444     0.000450     NO 
 RMS     Force            0.016925     0.000300     NO 
 Maximum Displacement     0.242108     0.001800     NO 
 RMS     Displacement     0.066407     0.001200     NO 
 Predicted change in Energy=-1.302430D-02
 GradGradGradGradGradGradGradGradGradGradGradGradGradGradGradGradGradGrad

                          Input orientation:                          
 ---------------------------------------------------------------------
 Center     Atomic      Atomic             Coordinates (Angstroms)
 Number     Number       Type             X           Y           Z
 ---------------------------------------------------------------------
      1          6           0       -2.080860   -1.670909    0.000000
      2          6           0       -1.388657   -0.556943    0.000000
      3          6           0        0.066096   -0.511474    0.000000
      4          1           0        0.568065   -1.459731    0.000000
      5          6           0        0.729977    0.624906    0.000000
      6          1           0        0.214007    1.566553    0.000000
      7          1           0        1.803991    0.627441    0.000000
      8         17           0       -3.809177   -1.693925    0.000000
      9          1           0       -1.596148   -2.623079    0.000000
     10          9           0       -1.981694    0.620130    0.000000
 ---------------------------------------------------------------------
                    Distance matrix (angstroms):
                    1          2          3          4          5
     1  C    0.000000
     2  C    1.311512   0.000000
     3  C    2.440023   1.455464   0.000000
     4  H    2.657330   2.154945   1.072923   0.000000
     5  C    3.629266   2.425980   1.316092   2.090915   0.000000
     6  H    3.968322   2.660408   2.083285   3.046926   1.073744
     7  H    4.513811   3.405257   2.077837   2.425655   1.074017
     8  Cl   1.728469   2.674255   4.051658   4.383502   5.097146
     9  H    1.068445   2.076528   2.687365   2.457070   3.995030
    10  F    2.293184   1.318027   2.339652   3.290455   2.711676
                    6          7          8          9         10
     6  H    0.000000
     7  H    1.846613   0.000000
     8  Cl   5.178487   6.074240   0.000000
     9  H    4.563955   4.703916   2.400171   0.000000
    10  F    2.390988   3.785693   2.948651   3.266045   0.000000
 Stoichiometry    C4H4ClF
 Framework group  CS[SG(C4H4ClF)]
 Deg. of freedom    17
 Full point group                 CS      NOp   2
 Largest Abelian subgroup         CS      NOp   2
 Largest concise Abelian subgroup C1      NOp   1
                         Standard orientation:                         
 ---------------------------------------------------------------------
 Center     Atomic      Atomic             Coordinates (Angstroms)
 Number     Number       Type             X           Y           Z
 ---------------------------------------------------------------------
      1          6           0       -0.831312   -0.571195    0.000000
      2          6           0        0.000000    0.443194    0.000000
      3          6           0       -0.425979    1.834925    0.000000
      4          1           0       -1.485438    2.004367    0.000000
      5          6           0        0.435681    2.829731    0.000000
      6          1           0        1.493398    2.644905    0.000000
      7          1           0        0.091814    3.847212    0.000000
      8         17           0       -0.295881   -2.214643    0.000000
      9          1           0       -1.888911   -0.419351    0.000000
     10          9           0        1.305418    0.261319    0.000000
 ---------------------------------------------------------------------
 Rotational constants (GHZ):     10.1356140      1.4557276      1.2729064
 Standard basis: 6-31G(d,p) (6D, 7F)
 There are    85 symmetry adapted basis functions of A'  symmetry.
 There are    29 symmetry adapted basis functions of A"  symmetry.
 Integral buffers will be    131072 words long.
 Raffenetti 1 integral format.
 Two-electron integral symmetry is turned on.
   114 basis functions,   220 primitive gaussians,   114 cartesian basis functions
    27 alpha electrons       27 beta electrons
       nuclear repulsion energy       265.1864501442 Hartrees.
 NAtoms=   10 NActive=   10 NUniq=   10 SFac= 7.50D-01 NAtFMM=   80 NAOKFM=F Big=F
 One-electron integrals computed using PRISM.
 NBasis=   114 RedAO= T  NBF=    85    29
 NBsUse=   114 1.00D-06 NBFU=    85    29
 Initial guess read from the read-write file.
 B after Tr=     0.000000    0.000000    0.000000
         Rot=    1.000000    0.000000    0.000000    0.000000 Ang=   0.00 deg.
 Initial guess orbital symmetries:
       Occupied  (A') (A') (A') (A') (A') (A') (A') (A') (A') (A")
                 (A') (A') (A') (A') (A') (A') (A') (A") (A') (A')
                 (A') (A') (A') (A") (A') (A") (A")
       Virtual   (A") (A') (A") (A') (A') (A') (A') (A') (A') (A')
                 (A') (A') (A') (A") (A') (A') (A") (A') (A') (A")
                 (A') (A") (A") (A') (A') (A') (A') (A') (A') (A')
                 (A") (A") (A') (A') (A') (A') (A') (A') (A') (A")
                 (A") (A') (A') (A") (A") (A") (A') (A") (A') (A")
                 (A') (A') (A') (A") (A') (A') (A') (A') (A') (A')
                 (A") (A") (A') (A') (A") (A') (A") (A') (A") (A")
                 (A") (A') (A') (A') (A') (A') (A') (A') (A') (A')
                 (A') (A') (A') (A') (A') (A') (A')
 Harris functional with IExCor=  205 diagonalized for initial guess.
 ExpMin= 1.43D-01 ExpMax= 2.52D+04 ExpMxC= 3.78D+03 IAcc=1 IRadAn=         1 AccDes= 0.00D+00
 HarFok:  IExCor=  205 AccDes= 0.00D+00 IRadAn=         1 IDoV= 1
 ScaDFX=  1.000000  1.000000  1.000000  1.000000
 FoFCou: FMM=F IPFlag=           0 FMFlag=      100000 FMFlg1=           0
         NFxFlg=           0 DoJE=T BraDBF=F KetDBF=T FulRan=T
         Omega=  0.000000  0.000000  1.000000  0.000000  0.000000 ICntrl=     500 IOpCl=  0
         NMat0=    1 NMatS0=    1 NMatT0=    0 NMatD0=    1 NMtDS0=    0 NMtDT0=    0
         I1Cent=           4 NGrid=           0.
 Petite list used in FoFCou.
 Requested convergence on RMS density matrix=1.00D-08 within 128 cycles.
 Requested convergence on MAX density matrix=1.00D-06.
 Requested convergence on             energy=1.00D-06.
 No special actions if energy rises.
 Keep R1 ints in memory in canonical form, NReq=22367610.
 SCF Done:  E(RHF) =  -712.676259149     A.U. after   14 cycles
             Convg  =    0.8784D-08             -V/T =  2.0006
 Calling FoFJK, ICntrl=      2127 FMM=F ISym2X=1 I1Cent= 0 IOpClX= 0 NMat=1 NMatS=1 NMatT=0.
 ***** Axes restored to original set *****
 -------------------------------------------------------------------
 Center     Atomic                   Forces (Hartrees/Bohr)
 Number     Number              X              Y              Z
 -------------------------------------------------------------------
      1        6          -0.009586490   -0.002463854    0.000000000
      2        6           0.003904640   -0.001568507    0.000000000
      3        6          -0.000369723    0.000895070    0.000000000
      4        1           0.001244559   -0.001302405    0.000000000
      5        6           0.004764601    0.001984519    0.000000000
      6        1           0.002152044    0.000805165    0.000000000
      7        1           0.000222293    0.002079150    0.000000000
      8       17           0.002136407   -0.002200321    0.000000000
      9        1          -0.001242574   -0.001357667    0.000000000
     10        9          -0.003225758    0.003128852    0.000000000
 -------------------------------------------------------------------
 Cartesian Forces:  Max     0.009586490 RMS     0.002510913

 GradGradGradGradGradGradGradGradGradGradGradGradGradGradGradGradGradGrad
 Berny optimization.
 Using GEDIIS/GDIIS optimizer.
 Internal  Forces:  Max     0.009702700 RMS     0.003326091
 Search for a local minimum.
 Step number   2 out of a maximum of   43
 All quantities printed in internal units (Hartrees-Bohrs-Radians)
 Mixed Optimization -- RFO/linear search
 Update second derivatives using D2CorX and points    1    2
 DE= -1.19D-02 DEPred=-1.30D-02 R= 9.14D-01
 SS=  1.41D+00  RLast= 2.67D-01 DXNew= 5.0454D-01 8.0085D-01
 Trust test= 9.14D-01 RLast= 2.67D-01 DXMaxT set to 5.05D-01
 Use linear search instead of GDIIS.
     Eigenvalues ---    0.00237   0.01526   0.01533   0.02681   0.02681
     Eigenvalues ---    0.02681   0.02681   0.15630   0.16000   0.16000
     Eigenvalues ---    0.16139   0.20871   0.22028   0.24633   0.25235
     Eigenvalues ---    0.29313   0.31513   0.37197   0.37230   0.37230
     Eigenvalues ---    0.37261   0.53925   0.54776   0.616961000.00000
     Eigenvalues --- 1000.000001000.000001000.000001000.000001000.00000
     Eigenvalues --- 1000.000001000.000001000.00000
 RFO step:  Lambda=-8.76747393D-04 EMin= 2.36824121D-03
 Quartic linear search produced a step of -0.06377.
 Iteration  1 RMS(Cart)=  0.02659528 RMS(Int)=  0.00015614
 Iteration  2 RMS(Cart)=  0.00017248 RMS(Int)=  0.00000000
 Iteration  3 RMS(Cart)=  0.00000001 RMS(Int)=  0.00000000
 ClnCor:  largest displacement from symmetrization is 2.25D-11 for atom     8.
 Variable       Old X    -DE/DX   Delta X   Delta X   Delta X     New X
                                 (Linear)    (Quad)   (Total)
    R1        2.47840   0.00970   0.00526   0.00812   0.01338   2.49178
    R2        3.26633  -0.00211   0.00380  -0.01340  -0.00960   3.25673
    R3        2.01907   0.00065   0.00019   0.00130   0.00149   2.02055
    R4        2.75043   0.00815   0.01019   0.00849   0.01868   2.76911
    R5        2.49071   0.00425   0.00385   0.00086   0.00471   2.49542
    R6        2.02753   0.00173  -0.00035   0.00495   0.00460   2.03213
    R7        2.48705   0.00781   0.00471   0.00574   0.01045   2.49750
    R8        2.02908  -0.00033  -0.00045  -0.00005  -0.00050   2.02858
    R9        2.02960   0.00023  -0.00048   0.00140   0.00092   2.03052
    A1        2.14011   0.00369  -0.00304   0.02133   0.01829   2.15840
    A2        2.11473  -0.00011  -0.00104   0.00459   0.00355   2.11828
    A3        2.02835  -0.00359   0.00409  -0.02592  -0.02184   2.00651
    A4        2.15804   0.00319  -0.00418   0.01954   0.01535   2.17339
    A5        2.11889  -0.00343  -0.00131  -0.01041  -0.01172   2.10717
    A6        2.00625   0.00024   0.00549  -0.00913  -0.00363   2.00262
    A7        2.02641  -0.00254   0.00421  -0.01828  -0.01407   2.01234
    A8        2.13077   0.00608  -0.00207   0.02963   0.02756   2.15833
    A9        2.12601  -0.00354  -0.00214  -0.01135  -0.01349   2.11252
   A10        2.11160   0.00167  -0.00084   0.01141   0.01056   2.12217
   A11        2.10188   0.00127  -0.00060   0.00862   0.00802   2.10990
   A12        2.06970  -0.00294   0.00145  -0.02003  -0.01858   2.05111
    D1        3.14159   0.00000   0.00000   0.00000   0.00000   3.14159
    D2        0.00000   0.00000   0.00000   0.00000   0.00000   0.00000
    D3        0.00000   0.00000   0.00000   0.00000   0.00000   0.00000
    D4        3.14159   0.00000   0.00000   0.00000   0.00000   3.14159
    D5        0.00000   0.00000   0.00000   0.00000   0.00000   0.00000
    D6        3.14159   0.00000   0.00000   0.00000   0.00000   3.14159
    D7        3.14159   0.00000   0.00000   0.00000   0.00000   3.14159
    D8        0.00000   0.00000   0.00000   0.00000   0.00000   0.00000
    D9        0.00000   0.00000   0.00000   0.00000   0.00000   0.00000
   D10        3.14159   0.00000   0.00000   0.00000   0.00000   3.14159
   D11        3.14159   0.00000   0.00000   0.00000   0.00000   3.14159
   D12        0.00000   0.00000   0.00000   0.00000   0.00000   0.00000
         Item               Value     Threshold  Converged?
 Maximum Force            0.009703     0.000450     NO 
 RMS     Force            0.003326     0.000300     NO 
 Maximum Displacement     0.083719     0.001800     NO 
 RMS     Displacement     0.026539     0.001200     NO 
 Predicted change in Energy=-4.903516D-04
 GradGradGradGradGradGradGradGradGradGradGradGradGradGradGradGradGradGrad

                          Input orientation:                          
 ---------------------------------------------------------------------
 Center     Atomic      Atomic             Coordinates (Angstroms)
 Number     Number       Type             X           Y           Z
 ---------------------------------------------------------------------
      1          6           0       -2.097882   -1.677925    0.000000
      2          6           0       -1.398445   -0.560126    0.000000
      3          6           0        0.065518   -0.496440    0.000000
      4          1           0        0.566876   -1.447773    0.000000
      5          6           0        0.749605    0.634361    0.000000
      6          1           0        0.258309    1.588818    0.000000
      7          1           0        1.824094    0.629043    0.000000
      8         17           0       -3.820573   -1.726999    0.000000
      9          1           0       -1.619184   -2.634013    0.000000
     10          9           0       -2.002717    0.614023    0.000000
 ---------------------------------------------------------------------
                    Distance matrix (angstroms):
                    1          2          3          4          5
     1  C    0.000000
     2  C    1.318593   0.000000
     3  C    2.464996   1.465348   0.000000
     4  H    2.674678   2.156479   1.075358   0.000000
     5  C    3.668085   2.457828   1.321623   2.090137   0.000000
     6  H    4.027810   2.713448   2.094151   3.052229   1.073480
     7  H    4.550165   3.434950   2.087894   2.427707   1.074503
     8  Cl   1.723390   2.688549   4.076270   4.396325   5.144176
     9  H    1.069231   2.085601   2.721661   2.487171   4.036512
    10  F    2.293923   1.320519   2.347493   3.294512   2.752397
                    6          7          8          9         10
     6  H    0.000000
     7  H    1.836532   0.000000
     8  Cl   5.256608   6.116633   0.000000
     9  H    4.621394   4.743806   2.380922   0.000000
    10  F    2.462208   3.826841   2.963947   3.270602   0.000000
 Stoichiometry    C4H4ClF
 Framework group  CS[SG(C4H4ClF)]
 Deg. of freedom    17
 Full point group                 CS      NOp   2
 Largest Abelian subgroup         CS      NOp   2
 Largest concise Abelian subgroup C1      NOp   1
                         Standard orientation:                         
 ---------------------------------------------------------------------
 Center     Atomic      Atomic             Coordinates (Angstroms)
 Number     Number       Type             X           Y           Z
 ---------------------------------------------------------------------
      1          6           0       -0.817045   -0.592149    0.000000
      2          6           0        0.000000    0.442802    0.000000
      3          6           0       -0.432931    1.842736    0.000000
      4          1           0       -1.497523    1.994520    0.000000
      5          6           0        0.401525    2.867611    0.000000
      6          1           0        1.465671    2.726354    0.000000
      7          1           0        0.034749    3.877577    0.000000
      8         17           0       -0.283244   -2.230785    0.000000
      9          1           0       -1.878485   -0.463302    0.000000
     10          9           0        1.309049    0.269132    0.000000
 ---------------------------------------------------------------------
 Rotational constants (GHZ):     10.1540118      1.4316540      1.2547429
 Standard basis: 6-31G(d,p) (6D, 7F)
 There are    85 symmetry adapted basis functions of A'  symmetry.
 There are    29 symmetry adapted basis functions of A"  symmetry.
 Integral buffers will be    131072 words long.
 Raffenetti 1 integral format.
 Two-electron integral symmetry is turned on.
   114 basis functions,   220 primitive gaussians,   114 cartesian basis functions
    27 alpha electrons       27 beta electrons
       nuclear repulsion energy       263.9451761718 Hartrees.
 NAtoms=   10 NActive=   10 NUniq=   10 SFac= 7.50D-01 NAtFMM=   80 NAOKFM=F Big=F
 One-electron integrals computed using PRISM.
 NBasis=   114 RedAO= T  NBF=    85    29
 NBsUse=   114 1.00D-06 NBFU=    85    29
 Initial guess read from the read-write file.
 B after Tr=     0.000000    0.000000    0.000000
         Rot=    1.000000    0.000000    0.000000    0.000000 Ang=   0.00 deg.
 Initial guess orbital symmetries:
       Occupied  (A') (A') (A') (A') (A') (A') (A') (A') (A') (A")
                 (A') (A') (A') (A') (A') (A') (A') (A") (A') (A')
                 (A') (A') (A') (A") (A') (A") (A")
       Virtual   (A") (A') (A') (A") (A') (A') (A') (A') (A') (A')
                 (A') (A') (A') (A") (A') (A') (A") (A') (A') (A")
                 (A') (A") (A") (A') (A') (A') (A') (A') (A") (A')
                 (A') (A") (A') (A') (A') (A') (A') (A') (A') (A")
                 (A") (A') (A') (A") (A") (A") (A') (A") (A') (A")
                 (A') (A') (A') (A") (A') (A') (A') (A') (A') (A')
                 (A") (A') (A") (A') (A") (A') (A") (A') (A") (A")
                 (A") (A') (A') (A') (A') (A') (A') (A') (A') (A')
                 (A') (A') (A') (A') (A') (A') (A')
 Harris functional with IExCor=  205 diagonalized for initial guess.
 ExpMin= 1.43D-01 ExpMax= 2.52D+04 ExpMxC= 3.78D+03 IAcc=1 IRadAn=         1 AccDes= 0.00D+00
 HarFok:  IExCor=  205 AccDes= 0.00D+00 IRadAn=         1 IDoV= 1
 ScaDFX=  1.000000  1.000000  1.000000  1.000000
 FoFCou: FMM=F IPFlag=           0 FMFlag=      100000 FMFlg1=           0
         NFxFlg=           0 DoJE=T BraDBF=F KetDBF=T FulRan=T
         Omega=  0.000000  0.000000  1.000000  0.000000  0.000000 ICntrl=     500 IOpCl=  0
         NMat0=    1 NMatS0=    1 NMatT0=    0 NMatD0=    1 NMtDS0=    0 NMtDT0=    0
         I1Cent=           4 NGrid=           0.
 Petite list used in FoFCou.
 Requested convergence on RMS density matrix=1.00D-08 within 128 cycles.
 Requested convergence on MAX density matrix=1.00D-06.
 Requested convergence on             energy=1.00D-06.
 No special actions if energy rises.
 Keep R1 ints in memory in canonical form, NReq=22367610.
 SCF Done:  E(RHF) =  -712.676678336     A.U. after   11 cycles
             Convg  =    0.4685D-08             -V/T =  2.0007
 Calling FoFJK, ICntrl=      2127 FMM=F ISym2X=1 I1Cent= 0 IOpClX= 0 NMat=1 NMatS=1 NMatT=0.
 ***** Axes restored to original set *****
 -------------------------------------------------------------------
 Center     Atomic                   Forces (Hartrees/Bohr)
 Number     Number              X              Y              Z
 -------------------------------------------------------------------
      1        6           0.000409870    0.000995279    0.000000000
      2        6           0.002328860   -0.002294370    0.000000000
      3        6          -0.000678680   -0.000017486    0.000000000
      4        1           0.000602202   -0.000027411    0.000000000
      5        6          -0.001509739   -0.001829016    0.000000000
      6        1           0.000081115    0.000504669    0.000000000
      7        1          -0.000217131   -0.000028817    0.000000000
      8       17           0.000166464    0.000333200    0.000000000
      9        1           0.000529468   -0.000076692    0.000000000
     10        9          -0.001712429    0.002440646    0.000000000
 -------------------------------------------------------------------
 Cartesian Forces:  Max     0.002440646 RMS     0.000964686

 GradGradGradGradGradGradGradGradGradGradGradGradGradGradGradGradGradGrad
 Berny optimization.
 Using GEDIIS/GDIIS optimizer.
 Internal  Forces:  Max     0.002953729 RMS     0.000844133
 Search for a local minimum.
 Step number   3 out of a maximum of   43
 All quantities printed in internal units (Hartrees-Bohrs-Radians)
 Mixed Optimization -- En-DIIS/RFO-DIIS
 Update second derivatives using D2CorX and points    1    2    3
 DE= -4.19D-04 DEPred=-4.90D-04 R= 8.55D-01
 SS=  1.41D+00  RLast= 6.04D-02 DXNew= 8.4853D-01 1.8117D-01
 Trust test= 8.55D-01 RLast= 6.04D-02 DXMaxT set to 5.05D-01
 Use linear search instead of GDIIS.
     Eigenvalues ---    0.00237   0.01525   0.01526   0.02681   0.02681
     Eigenvalues ---    0.02681   0.02681   0.14944   0.16000   0.16038
     Eigenvalues ---    0.16277   0.20940   0.22140   0.24559   0.25392
     Eigenvalues ---    0.29125   0.33178   0.37080   0.37230   0.37240
     Eigenvalues ---    0.37313   0.53898   0.55579   0.673811000.00000
     Eigenvalues --- 1000.000001000.000001000.000001000.000001000.00000
     Eigenvalues --- 1000.000001000.000001000.00000
 RFO step:  Lambda=-3.32766307D-05 EMin= 2.36824121D-03
 Quartic linear search produced a step of -0.12172.
 Iteration  1 RMS(Cart)=  0.00332735 RMS(Int)=  0.00000239
 Iteration  2 RMS(Cart)=  0.00000297 RMS(Int)=  0.00000000
 Iteration  3 RMS(Cart)=  0.00000000 RMS(Int)=  0.00000000
 ClnCor:  largest displacement from symmetrization is 6.47D-13 for atom    10.
 Variable       Old X    -DE/DX   Delta X   Delta X   Delta X     New X
                                 (Linear)    (Quad)   (Total)
    R1        2.49178  -0.00165  -0.00163  -0.00025  -0.00188   2.48990
    R2        3.25673  -0.00018   0.00117  -0.00176  -0.00059   3.25614
    R3        2.02055   0.00031  -0.00018   0.00096   0.00078   2.02134
    R4        2.76911  -0.00178  -0.00227  -0.00180  -0.00407   2.76503
    R5        2.49542   0.00295  -0.00057   0.00565   0.00508   2.50050
    R6        2.03213   0.00031  -0.00056   0.00142   0.00086   2.03299
    R7        2.49750  -0.00201  -0.00127  -0.00133  -0.00260   2.49490
    R8        2.02858   0.00041   0.00006   0.00086   0.00092   2.02950
    R9        2.03052  -0.00022  -0.00011  -0.00040  -0.00051   2.03001
    A1        2.15840  -0.00042  -0.00223   0.00095  -0.00127   2.15713
    A2        2.11828  -0.00024  -0.00043  -0.00118  -0.00161   2.11667
    A3        2.00651   0.00065   0.00266   0.00022   0.00288   2.00939
    A4        2.17339  -0.00067  -0.00187  -0.00025  -0.00212   2.17127
    A5        2.10717  -0.00017   0.00143  -0.00253  -0.00110   2.10607
    A6        2.00262   0.00084   0.00044   0.00278   0.00323   2.00584
    A7        2.01234   0.00107   0.00171   0.00321   0.00492   2.01726
    A8        2.15833  -0.00108  -0.00335  -0.00015  -0.00351   2.15482
    A9        2.11252   0.00001   0.00164  -0.00306  -0.00142   2.11110
   A10        2.12217   0.00043  -0.00129   0.00390   0.00261   2.12478
   A11        2.10990  -0.00025  -0.00098  -0.00016  -0.00113   2.10877
   A12        2.05111  -0.00018   0.00226  -0.00374  -0.00148   2.04963
    D1        3.14159   0.00000   0.00000   0.00000   0.00000   3.14159
    D2        0.00000   0.00000   0.00000   0.00000   0.00000   0.00000
    D3        0.00000   0.00000   0.00000   0.00000   0.00000   0.00000
    D4        3.14159   0.00000   0.00000   0.00000   0.00000   3.14159
    D5        0.00000   0.00000   0.00000   0.00000   0.00000   0.00000
    D6        3.14159   0.00000   0.00000   0.00000   0.00000   3.14159
    D7        3.14159   0.00000   0.00000   0.00000   0.00000   3.14159
    D8        0.00000   0.00000   0.00000   0.00000   0.00000   0.00000
    D9        0.00000   0.00000   0.00000   0.00000   0.00000   0.00000
   D10        3.14159   0.00000   0.00000   0.00000   0.00000   3.14159
   D11        3.14159   0.00000   0.00000   0.00000   0.00000   3.14159
   D12        0.00000   0.00000   0.00000   0.00000   0.00000   0.00000
         Item               Value     Threshold  Converged?
 Maximum Force            0.002954     0.000450     NO 
 RMS     Force            0.000844     0.000300     NO 
 Maximum Displacement     0.007312     0.001800     NO 
 RMS     Displacement     0.003327     0.001200     NO 
 Predicted change in Energy=-2.460396D-05
 GradGradGradGradGradGradGradGradGradGradGradGradGradGradGradGradGradGrad

                          Input orientation:                          
 ---------------------------------------------------------------------
 Center     Atomic      Atomic             Coordinates (Angstroms)
 Number     Number       Type             X           Y           Z
 ---------------------------------------------------------------------
      1          6           0       -2.095908   -1.676575    0.000000
      2          6           0       -1.397202   -0.559492    0.000000
      3          6           0        0.064729   -0.498737    0.000000
      4          1           0        0.569135   -1.448971    0.000000
      5          6           0        0.746335    0.631953    0.000000
      6          1           0        0.255819    1.587357    0.000000
      7          1           0        1.820558    0.627102    0.000000
      8         17           0       -3.818339   -1.723762    0.000000
      9          1           0       -1.615314   -2.632174    0.000000
     10          9           0       -2.004213    0.616267    0.000000
 ---------------------------------------------------------------------
                    Distance matrix (angstroms):
                    1          2          3          4          5
     1  C    0.000000
     2  C    1.317598   0.000000
     3  C    2.460824   1.463193   0.000000
     4  H    2.674745   2.158160   1.075811   0.000000
     5  C    3.661645   2.452405   1.320245   2.088455   0.000000
     6  H    4.022918   2.709509   2.094828   3.052451   1.073966
     7  H    4.543746   3.429575   2.085773   2.424075   1.074234
     8  Cl   1.723077   2.686528   4.071720   4.396071   5.136696
     9  H    1.069645   2.084126   2.715529   2.484308   4.028885
    10  F    2.294675   1.323205   2.350267   3.299595   2.750592
                    6          7          8          9         10
     6  H    0.000000
     7  H    1.835892   0.000000
     8  Cl   5.249979   6.109314   0.000000
     9  H    4.615797   4.735831   2.382967   0.000000
    10  F    2.459829   3.824786   2.960877   3.271637   0.000000
 Stoichiometry    C4H4ClF
 Framework group  CS[SG(C4H4ClF)]
 Deg. of freedom    17
 Full point group                 CS      NOp   2
 Largest Abelian subgroup         CS      NOp   2
 Largest concise Abelian subgroup C1      NOp   1
                         Standard orientation:                         
 ---------------------------------------------------------------------
 Center     Atomic      Atomic             Coordinates (Angstroms)
 Number     Number       Type             X           Y           Z
 ---------------------------------------------------------------------
      1          6           0       -0.818197   -0.589276    0.000000
      2          6           0        0.000000    0.443496    0.000000
      3          6           0       -0.432871    1.841193    0.000000
      4          1           0       -1.497216    1.997845    0.000000
      5          6           0        0.403879    2.862415    0.000000
      6          1           0        1.468438    2.720583    0.000000
      7          1           0        0.039177    3.872847    0.000000
      8         17           0       -0.285212   -2.227849    0.000000
      9          1           0       -1.879614   -0.456857    0.000000
     10          9           0        1.311217    0.265784    0.000000
 ---------------------------------------------------------------------
 Rotational constants (GHZ):     10.1225458      1.4355678      1.2572641
 Standard basis: 6-31G(d,p) (6D, 7F)
 There are    85 symmetry adapted basis functions of A'  symmetry.
 There are    29 symmetry adapted basis functions of A"  symmetry.
 Integral buffers will be    131072 words long.
 Raffenetti 1 integral format.
 Two-electron integral symmetry is turned on.
   114 basis functions,   220 primitive gaussians,   114 cartesian basis functions
    27 alpha electrons       27 beta electrons
       nuclear repulsion energy       264.0633055787 Hartrees.
 NAtoms=   10 NActive=   10 NUniq=   10 SFac= 7.50D-01 NAtFMM=   80 NAOKFM=F Big=F
 One-electron integrals computed using PRISM.
 NBasis=   114 RedAO= T  NBF=    85    29
 NBsUse=   114 1.00D-06 NBFU=    85    29
 Initial guess read from the read-write file.
 B after Tr=     0.000000    0.000000    0.000000
         Rot=    1.000000    0.000000    0.000000    0.000000 Ang=   0.00 deg.
 Initial guess orbital symmetries:
       Occupied  (A') (A') (A') (A') (A') (A') (A') (A') (A') (A")
                 (A') (A') (A') (A') (A') (A') (A') (A") (A') (A')
                 (A') (A') (A') (A") (A') (A") (A")
       Virtual   (A") (A') (A') (A") (A') (A') (A') (A') (A') (A')
                 (A') (A') (A') (A") (A') (A') (A") (A') (A') (A")
                 (A') (A") (A") (A') (A') (A') (A') (A') (A") (A')
                 (A') (A") (A') (A') (A') (A') (A') (A') (A') (A")
                 (A") (A') (A') (A") (A") (A") (A') (A") (A') (A")
                 (A') (A') (A') (A") (A') (A') (A') (A') (A') (A')
                 (A") (A') (A") (A') (A") (A') (A") (A') (A") (A")
                 (A") (A') (A') (A') (A') (A') (A') (A') (A') (A')
                 (A') (A') (A') (A') (A') (A') (A')
 Requested convergence on RMS density matrix=1.00D-08 within 128 cycles.
 Requested convergence on MAX density matrix=1.00D-06.
 Requested convergence on             energy=1.00D-06.
 No special actions if energy rises.
 Keep R1 ints in memory in canonical form, NReq=22367610.
 SCF Done:  E(RHF) =  -712.676704116     A.U. after    9 cycles
             Convg  =    0.6068D-08             -V/T =  2.0007
 Calling FoFJK, ICntrl=      2127 FMM=F ISym2X=1 I1Cent= 0 IOpClX= 0 NMat=1 NMatS=1 NMatT=0.
 ***** Axes restored to original set *****
 -------------------------------------------------------------------
 Center     Atomic                   Forces (Hartrees/Bohr)
 Number     Number              X              Y              Z
 -------------------------------------------------------------------
      1        6          -0.000262698    0.000094534    0.000000000
      2        6           0.000439121   -0.000595478    0.000000000
      3        6          -0.000299166   -0.000164401    0.000000000
      4        1          -0.000023955    0.000130827    0.000000000
      5        6          -0.000067775    0.000056742    0.000000000
      6        1           0.000062584    0.000037293    0.000000000
      7        1           0.000065837    0.000064114    0.000000000
      8       17           0.000032247    0.000017536    0.000000000
      9        1           0.000107353    0.000064696    0.000000000
     10        9          -0.000053550    0.000294138    0.000000000
 -------------------------------------------------------------------
 Cartesian Forces:  Max     0.000595478 RMS     0.000172007

 GradGradGradGradGradGradGradGradGradGradGradGradGradGradGradGradGradGrad
 Berny optimization.
 Using GEDIIS/GDIIS optimizer.
 Internal  Forces:  Max     0.000285927 RMS     0.000109439
 Search for a local minimum.
 Step number   4 out of a maximum of   43
 All quantities printed in internal units (Hartrees-Bohrs-Radians)
 Mixed Optimization -- En-DIIS/RFO-DIIS
 Swaping is turned off.
 Update second derivatives using D2CorX and points    1    2    3    4
 DE= -2.58D-05 DEPred=-2.46D-05 R= 1.05D+00
 SS=  1.41D+00  RLast= 1.15D-02 DXNew= 8.4853D-01 3.4587D-02
 Trust test= 1.05D+00 RLast= 1.15D-02 DXMaxT set to 5.05D-01
     Eigenvalues ---    0.00237   0.01521   0.01524   0.02681   0.02681
     Eigenvalues ---    0.02681   0.02681   0.14559   0.15551   0.16035
     Eigenvalues ---    0.16149   0.20883   0.22026   0.24261   0.26725
     Eigenvalues ---    0.29204   0.32140   0.37178   0.37206   0.37257
     Eigenvalues ---    0.37650   0.52789   0.55238   0.684021000.00000
     Eigenvalues --- 1000.000001000.000001000.000001000.000001000.00000
     Eigenvalues --- 1000.000001000.000001000.00000
 En-DIIS/RFO-DIIS IScMMF=        0 using points:     4    3
 RFO step:  Lambda=-7.61903584D-07.
 DIIS coeffs:      1.04394     -0.04394
 Iteration  1 RMS(Cart)=  0.00077325 RMS(Int)=  0.00000028
 Iteration  2 RMS(Cart)=  0.00000045 RMS(Int)=  0.00000000
 ClnCor:  largest displacement from symmetrization is 1.23D-13 for atom     4.
 Variable       Old X    -DE/DX   Delta X   Delta X   Delta X     New X
                                  (DIIS)     (GDIIS)  (Total)
    R1        2.48990  -0.00008  -0.00008  -0.00006  -0.00014   2.48976
    R2        3.25614  -0.00003  -0.00003  -0.00018  -0.00021   3.25593
    R3        2.02134  -0.00001   0.00003  -0.00002   0.00001   2.02135
    R4        2.76503  -0.00026  -0.00018  -0.00079  -0.00097   2.76407
    R5        2.50050   0.00029   0.00022   0.00053   0.00075   2.50125
    R6        2.03299  -0.00013   0.00004  -0.00033  -0.00029   2.03269
    R7        2.49490   0.00017  -0.00011   0.00041   0.00030   2.49520
    R8        2.02950   0.00000   0.00004   0.00000   0.00004   2.02954
    R9        2.03001   0.00007  -0.00002   0.00020   0.00017   2.03018
    A1        2.15713   0.00005  -0.00006   0.00037   0.00032   2.15744
    A2        2.11667  -0.00015  -0.00007  -0.00091  -0.00098   2.11569
    A3        2.00939   0.00010   0.00013   0.00054   0.00067   2.01006
    A4        2.17127   0.00027  -0.00009   0.00126   0.00117   2.17244
    A5        2.10607  -0.00003  -0.00005  -0.00018  -0.00023   2.10584
    A6        2.00584  -0.00024   0.00014  -0.00108  -0.00094   2.00490
    A7        2.01726   0.00007   0.00022   0.00029   0.00050   2.01777
    A8        2.15482  -0.00007  -0.00015  -0.00009  -0.00024   2.15458
    A9        2.11110  -0.00001  -0.00006  -0.00020  -0.00026   2.11084
   A10        2.12478   0.00005   0.00011   0.00041   0.00053   2.12531
   A11        2.10877   0.00004  -0.00005   0.00032   0.00027   2.10904
   A12        2.04963  -0.00009  -0.00007  -0.00073  -0.00079   2.04884
    D1        3.14159   0.00000   0.00000   0.00000   0.00000   3.14159
    D2        0.00000   0.00000   0.00000   0.00000   0.00000   0.00000
    D3        0.00000   0.00000   0.00000   0.00000   0.00000   0.00000
    D4        3.14159   0.00000   0.00000   0.00000   0.00000   3.14159
    D5        0.00000   0.00000   0.00000   0.00000   0.00000   0.00000
    D6        3.14159   0.00000   0.00000   0.00000   0.00000   3.14159
    D7        3.14159   0.00000   0.00000   0.00000   0.00000   3.14159
    D8        0.00000   0.00000   0.00000   0.00000   0.00000   0.00000
    D9        0.00000   0.00000   0.00000   0.00000   0.00000   0.00000
   D10        3.14159   0.00000   0.00000   0.00000   0.00000   3.14159
   D11        3.14159   0.00000   0.00000   0.00000   0.00000   3.14159
   D12        0.00000   0.00000   0.00000   0.00000   0.00000   0.00000
         Item               Value     Threshold  Converged?
 Maximum Force            0.000286     0.000450     YES
 RMS     Force            0.000109     0.000300     YES
 Maximum Displacement     0.002180     0.001800     NO 
 RMS     Displacement     0.000773     0.001200     YES
 Predicted change in Energy=-7.658975D-07
 GradGradGradGradGradGradGradGradGradGradGradGradGradGradGradGradGradGrad

                          Input orientation:                          
 ---------------------------------------------------------------------
 Center     Atomic      Atomic             Coordinates (Angstroms)
 Number     Number       Type             X           Y           Z
 ---------------------------------------------------------------------
      1          6           0       -2.096324   -1.676742    0.000000
      2          6           0       -1.396653   -0.560353    0.000000
      3          6           0        0.064751   -0.499223    0.000000
      4          1           0        0.569819   -1.448928    0.000000
      5          6           0        0.745859    0.631953    0.000000
      6          1           0        0.255349    1.587384    0.000000
      7          1           0        1.820179    0.627936    0.000000
      8         17           0       -3.818671   -1.722920    0.000000
      9          1           0       -1.615649   -2.632306    0.000000
     10          9           0       -2.003059    0.616168    0.000000
 ---------------------------------------------------------------------
                    Distance matrix (angstroms):
                    1          2          3          4          5
     1  C    0.000000
     2  C    1.317522   0.000000
     3  C    2.461055   1.462681   0.000000
     4  H    2.675858   2.157911   1.075655   0.000000
     5  C    3.661703   2.451928   1.320404   2.088314   0.000000
     6  H    4.023044   2.709591   2.095294   3.052554   1.073988
     7  H    4.544285   3.429291   2.086148   2.424204   1.074327
     8  Cl   1.722966   2.686584   4.071658   4.397035   5.136182
     9  H    1.069651   2.083495   2.715472   2.485288   4.028909
    10  F    2.294805   1.323604   2.349454   3.299140   2.748964
                    6          7          8          9         10
     6  H    0.000000
     7  H    1.835547   0.000000
     8  Cl   5.249357   6.109268   0.000000
     9  H    4.615888   4.736464   2.383336   0.000000
    10  F    2.458387   3.823256   2.961043   3.271494   0.000000
 Stoichiometry    C4H4ClF
 Framework group  CS[SG(C4H4ClF)]
 Deg. of freedom    17
 Full point group                 CS      NOp   2
 Largest Abelian subgroup         CS      NOp   2
 Largest concise Abelian subgroup C1      NOp   1
                         Standard orientation:                         
 ---------------------------------------------------------------------
 Center     Atomic      Atomic             Coordinates (Angstroms)
 Number     Number       Type             X           Y           Z
 ---------------------------------------------------------------------
      1          6           0       -0.819710   -0.587821    0.000000
      2          6           0        0.000000    0.443654    0.000000
      3          6           0       -0.428970    1.842018    0.000000
      4          1           0       -1.492656    2.002037    0.000000
      5          6           0        0.410863    2.860913    0.000000
      6          1           0        1.475102    2.716528    0.000000
      7          1           0        0.049354    3.872589    0.000000
      8         17           0       -0.289754   -2.227260    0.000000
      9          1           0       -1.880798   -0.452755    0.000000
     10          9           0        1.311301    0.263604    0.000000
 ---------------------------------------------------------------------
 Rotational constants (GHZ):     10.1266556      1.4356713      1.2574068
 Standard basis: 6-31G(d,p) (6D, 7F)
 There are    85 symmetry adapted basis functions of A'  symmetry.
 There are    29 symmetry adapted basis functions of A"  symmetry.
 Integral buffers will be    131072 words long.
 Raffenetti 1 integral format.
 Two-electron integral symmetry is turned on.
   114 basis functions,   220 primitive gaussians,   114 cartesian basis functions
    27 alpha electrons       27 beta electrons
       nuclear repulsion energy       264.0728016216 Hartrees.
 NAtoms=   10 NActive=   10 NUniq=   10 SFac= 7.50D-01 NAtFMM=   80 NAOKFM=F Big=F
 One-electron integrals computed using PRISM.
 NBasis=   114 RedAO= T  NBF=    85    29
 NBsUse=   114 1.00D-06 NBFU=    85    29
 Initial guess read from the read-write file.
 B after Tr=     0.000000    0.000000    0.000000
         Rot=    1.000000    0.000000    0.000000    0.000000 Ang=   0.00 deg.
 Initial guess orbital symmetries:
       Occupied  (A') (A') (A') (A') (A') (A') (A') (A') (A') (A")
                 (A') (A') (A') (A') (A') (A') (A') (A") (A') (A')
                 (A') (A') (A') (A") (A') (A") (A")
       Virtual   (A") (A') (A') (A") (A') (A') (A') (A') (A') (A')
                 (A') (A') (A') (A") (A') (A') (A") (A') (A') (A")
                 (A') (A") (A") (A') (A') (A') (A') (A') (A") (A')
                 (A') (A") (A') (A') (A') (A') (A') (A') (A') (A")
                 (A") (A') (A') (A") (A") (A") (A') (A") (A') (A")
                 (A') (A') (A') (A") (A') (A') (A') (A') (A') (A')
                 (A") (A') (A") (A') (A") (A') (A") (A') (A") (A")
                 (A") (A') (A') (A') (A') (A') (A') (A') (A') (A')
                 (A') (A') (A') (A') (A') (A') (A')
 Requested convergence on RMS density matrix=1.00D-08 within 128 cycles.
 Requested convergence on MAX density matrix=1.00D-06.
 Requested convergence on             energy=1.00D-06.
 No special actions if energy rises.
 Keep R1 ints in memory in canonical form, NReq=22367610.
 SCF Done:  E(RHF) =  -712.676704916     A.U. after    8 cycles
             Convg  =    0.9950D-08             -V/T =  2.0007
 Calling FoFJK, ICntrl=      2127 FMM=F ISym2X=1 I1Cent= 0 IOpClX= 0 NMat=1 NMatS=1 NMatT=0.
 ***** Axes restored to original set *****
 -------------------------------------------------------------------
 Center     Atomic                   Forces (Hartrees/Bohr)
 Number     Number              X              Y              Z
 -------------------------------------------------------------------
      1        6          -0.000108597    0.000008221    0.000000000
      2        6          -0.000024727   -0.000066192    0.000000000
      3        6           0.000096125    0.000038837    0.000000000
      4        1           0.000017422    0.000017017    0.000000000
      5        6          -0.000023977   -0.000004651    0.000000000
      6        1           0.000003225   -0.000023399    0.000000000
      7        1           0.000003905   -0.000008875    0.000000000
      8       17           0.000040874    0.000007367    0.000000000
      9        1           0.000021397    0.000006026    0.000000000
     10        9          -0.000025646    0.000025647    0.000000000
 -------------------------------------------------------------------
 Cartesian Forces:  Max     0.000108597 RMS     0.000033155

 GradGradGradGradGradGradGradGradGradGradGradGradGradGradGradGradGradGrad
 Berny optimization.
 Using GEDIIS/GDIIS optimizer.
 Internal  Forces:  Max     0.000097406 RMS     0.000026177
 Search for a local minimum.
 Step number   5 out of a maximum of   43
 All quantities printed in internal units (Hartrees-Bohrs-Radians)
 Mixed Optimization -- En-DIIS/RFO-DIIS
 Swaping is turned off.
 Update second derivatives using D2CorX and points    1    2    3    4    5
 DE= -8.00D-07 DEPred=-7.66D-07 R= 1.04D+00
 Trust test= 1.04D+00 RLast= 2.64D-03 DXMaxT set to 5.05D-01
     Eigenvalues ---    0.00237   0.01520   0.01524   0.02681   0.02681
     Eigenvalues ---    0.02681   0.02681   0.13520   0.15283   0.16034
     Eigenvalues ---    0.16250   0.20914   0.21682   0.22935   0.26219
     Eigenvalues ---    0.29358   0.35924   0.37157   0.37193   0.37406
     Eigenvalues ---    0.38518   0.52919   0.55899   0.673361000.00000
     Eigenvalues --- 1000.000001000.000001000.000001000.000001000.00000
     Eigenvalues --- 1000.000001000.000001000.00000
 En-DIIS/RFO-DIIS IScMMF=        0 using points:     5    4    3
 RFO step:  Lambda=-4.31591757D-08.
 DIIS coeffs:      1.04396     -0.04228     -0.00169
 Iteration  1 RMS(Cart)=  0.00024274 RMS(Int)=  0.00000002
 Iteration  2 RMS(Cart)=  0.00000003 RMS(Int)=  0.00000000
 ClnCor:  largest displacement from symmetrization is 2.57D-14 for atom     5.
 Variable       Old X    -DE/DX   Delta X   Delta X   Delta X     New X
                                  (DIIS)     (GDIIS)  (Total)
    R1        2.48976   0.00001  -0.00001  -0.00001  -0.00002   2.48973
    R2        3.25593  -0.00004  -0.00001  -0.00016  -0.00017   3.25577
    R3        2.02135   0.00000   0.00000   0.00001   0.00002   2.02136
    R4        2.76407   0.00010  -0.00005   0.00029   0.00025   2.76431
    R5        2.50125   0.00003   0.00004   0.00008   0.00012   2.50137
    R6        2.03269  -0.00001  -0.00001  -0.00002  -0.00003   2.03266
    R7        2.49520  -0.00004   0.00001  -0.00010  -0.00009   2.49511
    R8        2.02954  -0.00002   0.00000  -0.00006  -0.00005   2.02949
    R9        2.03018   0.00000   0.00001   0.00001   0.00002   2.03020
    A1        2.15744   0.00000   0.00001   0.00001   0.00002   2.15746
    A2        2.11569  -0.00002  -0.00005  -0.00016  -0.00020   2.11548
    A3        2.01006   0.00002   0.00003   0.00015   0.00018   2.01024
    A4        2.17244   0.00006   0.00005   0.00026   0.00031   2.17275
    A5        2.10584  -0.00004  -0.00001  -0.00018  -0.00019   2.10565
    A6        2.00490  -0.00002  -0.00004  -0.00008  -0.00012   2.00478
    A7        2.01777   0.00003   0.00003   0.00018   0.00021   2.01798
    A8        2.15458  -0.00001  -0.00002  -0.00005  -0.00007   2.15452
    A9        2.11084  -0.00002  -0.00001  -0.00013  -0.00015   2.11069
   A10        2.12531   0.00000   0.00003  -0.00002   0.00001   2.12532
   A11        2.10904  -0.00001   0.00001  -0.00004  -0.00004   2.10900
   A12        2.04884   0.00001  -0.00004   0.00006   0.00002   2.04886
    D1        3.14159   0.00000   0.00000   0.00000   0.00000   3.14159
    D2        0.00000   0.00000   0.00000   0.00000   0.00000   0.00000
    D3        0.00000   0.00000   0.00000   0.00000   0.00000   0.00000
    D4        3.14159   0.00000   0.00000   0.00000   0.00000   3.14159
    D5        0.00000   0.00000   0.00000   0.00000   0.00000   0.00000
    D6        3.14159   0.00000   0.00000   0.00000   0.00000   3.14159
    D7        3.14159   0.00000   0.00000   0.00000   0.00000   3.14159
    D8        0.00000   0.00000   0.00000   0.00000   0.00000   0.00000
    D9        0.00000   0.00000   0.00000   0.00000   0.00000   0.00000
   D10        3.14159   0.00000   0.00000   0.00000   0.00000   3.14159
   D11        3.14159   0.00000   0.00000   0.00000   0.00000   3.14159
   D12        0.00000   0.00000   0.00000   0.00000   0.00000   0.00000
         Item               Value     Threshold  Converged?
 Maximum Force            0.000097     0.000450     YES
 RMS     Force            0.000026     0.000300     YES
 Maximum Displacement     0.000859     0.001800     YES
 RMS     Displacement     0.000243     0.001200     YES
 Predicted change in Energy=-4.346373D-08
 Optimization completed.
    -- Stationary point found.
                           ----------------------------
                           !   Optimized Parameters   !
                           ! (Angstroms and Degrees)  !
 --------------------------                            --------------------------
 ! Name  Definition              Value          Derivative Info.                !
 --------------------------------------------------------------------------------
 ! R1    R(1,2)                  1.3175         -DE/DX =    0.0                 !
 ! R2    R(1,8)                  1.723          -DE/DX =    0.0                 !
 ! R3    R(1,9)                  1.0697         -DE/DX =    0.0                 !
 ! R4    R(2,3)                  1.4627         -DE/DX =    0.0001              !
 ! R5    R(2,10)                 1.3236         -DE/DX =    0.0                 !
 ! R6    R(3,4)                  1.0757         -DE/DX =    0.0                 !
 ! R7    R(3,5)                  1.3204         -DE/DX =    0.0                 !
 ! R8    R(5,6)                  1.074          -DE/DX =    0.0                 !
 ! R9    R(5,7)                  1.0743         -DE/DX =    0.0                 !
 ! A1    A(2,1,8)              123.6123         -DE/DX =    0.0                 !
 ! A2    A(2,1,9)              121.2199         -DE/DX =    0.0                 !
 ! A3    A(8,1,9)              115.1678         -DE/DX =    0.0                 !
 ! A4    A(1,2,3)              124.4717         -DE/DX =    0.0001              !
 ! A5    A(1,2,10)             120.6559         -DE/DX =    0.0                 !
 ! A6    A(3,2,10)             114.8724         -DE/DX =    0.0                 !
 ! A7    A(2,3,4)              115.6095         -DE/DX =    0.0                 !
 ! A8    A(2,3,5)              123.4484         -DE/DX =    0.0                 !
 ! A9    A(4,3,5)              120.942          -DE/DX =    0.0                 !
 ! A10   A(3,5,6)              121.7712         -DE/DX =    0.0                 !
 ! A11   A(3,5,7)              120.839          -DE/DX =    0.0                 !
 ! A12   A(6,5,7)              117.3898         -DE/DX =    0.0                 !
 ! D1    D(8,1,2,3)            180.0            -DE/DX =    0.0                 !
 ! D2    D(8,1,2,10)             0.0            -DE/DX =    0.0                 !
 ! D3    D(9,1,2,3)              0.0            -DE/DX =    0.0                 !
 ! D4    D(9,1,2,10)           180.0            -DE/DX =    0.0                 !
 ! D5    D(1,2,3,4)              0.0            -DE/DX =    0.0                 !
 ! D6    D(1,2,3,5)            180.0            -DE/DX =    0.0                 !
 ! D7    D(10,2,3,4)           180.0            -DE/DX =    0.0                 !
 ! D8    D(10,2,3,5)             0.0            -DE/DX =    0.0                 !
 ! D9    D(2,3,5,6)              0.0            -DE/DX =    0.0                 !
 ! D10   D(2,3,5,7)            180.0            -DE/DX =    0.0                 !
 ! D11   D(4,3,5,6)            180.0            -DE/DX =    0.0                 !
 ! D12   D(4,3,5,7)              0.0            -DE/DX =    0.0                 !
 --------------------------------------------------------------------------------
 GradGradGradGradGradGradGradGradGradGradGradGradGradGradGradGradGradGrad

                          Input orientation:                          
 ---------------------------------------------------------------------
 Center     Atomic      Atomic             Coordinates (Angstroms)
 Number     Number       Type             X           Y           Z
 ---------------------------------------------------------------------
      1          6           0       -2.096324   -1.676742    0.000000
      2          6           0       -1.396653   -0.560353    0.000000
      3          6           0        0.064751   -0.499223    0.000000
      4          1           0        0.569819   -1.448928    0.000000
      5          6           0        0.745859    0.631953    0.000000
      6          1           0        0.255349    1.587384    0.000000
      7          1           0        1.820179    0.627936    0.000000
      8         17           0       -3.818671   -1.722920    0.000000
      9          1           0       -1.615649   -2.632306    0.000000
     10          9           0       -2.003059    0.616168    0.000000
 ---------------------------------------------------------------------
                    Distance matrix (angstroms):
                    1          2          3          4          5
     1  C    0.000000
     2  C    1.317522   0.000000
     3  C    2.461055   1.462681   0.000000
     4  H    2.675858   2.157911   1.075655   0.000000
     5  C    3.661703   2.451928   1.320404   2.088314   0.000000
     6  H    4.023044   2.709591   2.095294   3.052554   1.073988
     7  H    4.544285   3.429291   2.086148   2.424204   1.074327
     8  Cl   1.722966   2.686584   4.071658   4.397035   5.136182
     9  H    1.069651   2.083495   2.715472   2.485288   4.028909
    10  F    2.294805   1.323604   2.349454   3.299140   2.748964
                    6          7          8          9         10
     6  H    0.000000
     7  H    1.835547   0.000000
     8  Cl   5.249357   6.109268   0.000000
     9  H    4.615888   4.736464   2.383336   0.000000
    10  F    2.458387   3.823256   2.961043   3.271494   0.000000
 Stoichiometry    C4H4ClF
 Framework group  CS[SG(C4H4ClF)]
 Deg. of freedom    17
 Full point group                 CS      NOp   2
 Largest Abelian subgroup         CS      NOp   2
 Largest concise Abelian subgroup C1      NOp   1
                         Standard orientation:                         
 ---------------------------------------------------------------------
 Center     Atomic      Atomic             Coordinates (Angstroms)
 Number     Number       Type             X           Y           Z
 ---------------------------------------------------------------------
      1          6           0       -0.819710   -0.587821    0.000000
      2          6           0        0.000000    0.443654    0.000000
      3          6           0       -0.428970    1.842018    0.000000
      4          1           0       -1.492656    2.002037    0.000000
      5          6           0        0.410863    2.860913    0.000000
      6          1           0        1.475102    2.716528    0.000000
      7          1           0        0.049354    3.872589    0.000000
      8         17           0       -0.289754   -2.227260    0.000000
      9          1           0       -1.880798   -0.452755    0.000000
     10          9           0        1.311301    0.263604    0.000000
 ---------------------------------------------------------------------
 Rotational constants (GHZ):     10.1266556      1.4356713      1.2574068

 **********************************************************************

            Population analysis using the SCF density.

 **********************************************************************

 Orbital symmetries:
       Occupied  (A') (A') (A') (A') (A') (A') (A') (A') (A') (A")
                 (A') (A') (A') (A') (A') (A') (A') (A") (A') (A')
                 (A') (A') (A') (A") (A') (A") (A")
       Virtual   (A") (A') (A') (A") (A') (A') (A') (A') (A') (A')
                 (A') (A') (A') (A") (A') (A') (A") (A') (A') (A")
[...]
 Frequencies --  3359.6164              3426.0665              3429.0472
 Red. masses --     1.0959                 1.1175                 1.0945
 Frc consts  --     7.2877                 7.7284                 7.5826
 IR Inten    --     5.5600                 4.6954                19.2894
  Atom  AN      X      Y      Z        X      Y      Z        X      Y      Z
     1   6     0.00   0.00   0.00     0.01   0.00   0.00    -0.09   0.00   0.00
     2   6     0.00   0.00   0.00     0.00   0.00   0.00     0.00   0.01   0.00
     3   6    -0.08   0.01   0.00    -0.01   0.00   0.00    -0.01   0.00   0.00
     4   1     0.93  -0.14   0.00     0.11  -0.01   0.00     0.06  -0.01   0.00
     5   6     0.02   0.02   0.00    -0.08   0.06   0.00    -0.01   0.01   0.00
     6   1    -0.28   0.04   0.00     0.72  -0.09   0.00     0.08  -0.01   0.00
     7   1     0.05  -0.14   0.00     0.22  -0.62   0.00     0.02  -0.07   0.00
     8  17     0.00   0.00   0.00     0.00   0.00   0.00     0.00   0.00   0.00
     9   1    -0.05   0.01   0.00    -0.11   0.01   0.00     0.98  -0.11   0.00
    10   9     0.00   0.00   0.00     0.00   0.00   0.00     0.00   0.00   0.00

 -------------------
 - Thermochemistry -
 -------------------
 Temperature   298.150 Kelvin.  Pressure   1.00000 Atm.
 Atom     1 has atomic number  6 and mass  12.00000
 Atom     2 has atomic number  6 and mass  12.00000
 Atom     3 has atomic number  6 and mass  12.00000
 Atom     4 has atomic number  1 and mass   1.00783
 Atom     5 has atomic number  6 and mass  12.00000
 Atom     6 has atomic number  1 and mass   1.00783
 Atom     7 has atomic number  1 and mass   1.00783
 Atom     8 has atomic number 17 and mass  34.96885
 Atom     9 has atomic number  1 and mass   1.00783
 Atom    10 has atomic number  9 and mass  18.99840
 Molecular mass:   105.99856 amu.
 Principal axes and moments of inertia in atomic units:
                           1         2         3
     Eigenvalues --   178.216901257.071301435.28820
           X            0.14003   0.99015   0.00000
           Y            0.99015  -0.14003   0.00000
           Z            0.00000   0.00000   1.00000
 This molecule is an asymmetric top.
 Rotational symmetry number  1.
 Rotational temperatures (Kelvin)      0.48600     0.06890     0.06035
 Rotational constants (GHZ):          10.12666     1.43567     1.25741
 Zero-point vibrational energy     195055.2 (Joules/Mol)
                                   46.61931 (Kcal/Mol)
 Warning -- explicit consideration of   6 degrees of freedom as
           vibrations may cause significant error
 Vibrational temperatures:    161.30   262.64   371.08   435.13   631.65
          (Kelvin)            819.17   975.71  1153.66  1307.31  1322.03
                             1391.84  1582.90  1614.09  1638.13  1883.59
                             2066.87  2143.35  2269.73  2637.18  2758.79
                             4796.58  4833.73  4929.34  4933.63
 
 Zero-point correction=                           0.074293 (Hartree/Particle)
 Thermal correction to Energy=                    0.080210
 Thermal correction to Enthalpy=                  0.081154
 Thermal correction to Gibbs Free Energy=         0.043972
 Sum of electronic and zero-point Energies=           -712.602412
 Sum of electronic and thermal Energies=              -712.596495
 Sum of electronic and thermal Enthalpies=            -712.595551
 Sum of electronic and thermal Free Energies=         -712.632733
 
                     E (Thermal)             CV                S
                      KCal/Mol        Cal/Mol-Kelvin    Cal/Mol-Kelvin
 Total                   50.333             19.763             78.257
 Electronic               0.000              0.000              0.000
 Translational            0.889              2.981             39.892
 Rotational               0.889              2.981             27.266
 Vibrational             48.555             13.802             11.099
 Vibration     1          0.607              1.939              3.232
 Vibration     2          0.630              1.864              2.302
 Vibration     3          0.667              1.749              1.676
 Vibration     4          0.694              1.669              1.403
 Vibration     5          0.799              1.385              0.830
 Vibration     6          0.925              1.098              0.505
                       Q            Log10(Q)             Ln(Q)
 Total Bot       0.594732D-20        -20.225679        -46.571346
 Total V=0       0.884036D+14         13.946470         32.112934
 Vib (Bot)       0.683040D-33        -33.165554        -76.366511
 Vib (Bot)    1  0.182603D+01          0.261509          0.602146
 Vib (Bot)    2  0.109934D+01          0.041130          0.094706
 Vib (Bot)    3  0.753868D+00         -0.122705         -0.282538
 Vib (Bot)    4  0.627968D+00         -0.202063         -0.465266
 Vib (Bot)    5  0.394070D+00         -0.404427         -0.931227
 Vib (Bot)    6  0.270492D+00         -0.567846         -1.307514
 Vib (V=0)       0.101530D+02          1.006594          2.317769
 Vib (V=0)    1  0.239325D+01          0.378988          0.872652
 Vib (V=0)    2  0.170770D+01          0.232412          0.535147
 Vib (V=0)    3  0.140461D+01          0.147555          0.339759
 Vib (V=0)    4  0.130271D+01          0.114848          0.264447
 Vib (V=0)    5  0.113662D+01          0.055617          0.128063
 Vib (V=0)    6  0.106848D+01          0.028765          0.066234
 Electronic      0.100000D+01          0.000000          0.000000
 Translational   0.428948D+08          7.632405         17.574262
 Rotational      0.202988D+06          5.307470         12.220902
 ***** Axes restored to original set *****
 -------------------------------------------------------------------
 Center     Atomic                   Forces (Hartrees/Bohr)
 Number     Number              X              Y              Z
 -------------------------------------------------------------------
      1        6          -0.000108605    0.000008240    0.000000000
      2        6          -0.000024723   -0.000066168    0.000000000
      3        6           0.000096110    0.000038845    0.000000000
      4        1           0.000017425    0.000017015    0.000000000
      5        6          -0.000023978   -0.000004654    0.000000000
      6        1           0.000003226   -0.000023399    0.000000000
      7        1           0.000003904   -0.000008875    0.000000000
      8       17           0.000040870    0.000007363    0.000000000
      9        1           0.000021401    0.000006010    0.000000000
     10        9          -0.000025631    0.000025623    0.000000000
 -------------------------------------------------------------------
 Cartesian Forces:  Max     0.000108605 RMS     0.000033152

 GradGradGradGradGradGradGradGradGradGradGradGradGradGradGradGradGradGrad
 Berny optimization.
 Internal  Forces:  Max     0.000097394 RMS     0.000026175
 Search for a local minimum.
 Step number   1 out of a maximum of    2
 All quantities printed in internal units (Hartrees-Bohrs-Radians)
 Second derivative matrix not updated -- analytic derivatives used.
     Eigenvalues ---    0.00726   0.02642   0.02955   0.03736   0.04340
     Eigenvalues ---    0.05072   0.05372   0.12106   0.12564   0.12943
     Eigenvalues ---    0.15390   0.19169   0.19662   0.20971   0.27413
     Eigenvalues ---    0.31797   0.39796   0.39945   0.40311   0.41249
     Eigenvalues ---    0.41630   0.51907   0.73261   0.750721000.00000
     Eigenvalues --- 1000.000001000.000001000.000001000.000001000.00000
     Eigenvalues --- 1000.000001000.000001000.00000
 Angle between quadratic step and forces=  27.43 degrees.
 Linear search not attempted -- first point.
 Iteration  1 RMS(Cart)=  0.00022928 RMS(Int)=  0.00000002
 Iteration  2 RMS(Cart)=  0.00000003 RMS(Int)=  0.00000000
 ClnCor:  largest displacement from symmetrization is 4.78D-15 for atom     7.
 Variable       Old X    -DE/DX   Delta X   Delta X   Delta X     New X
                                 (Linear)    (Quad)   (Total)
    R1        2.48976   0.00001   0.00000   0.00000   0.00000   2.48976
    R2        3.25593  -0.00004   0.00000  -0.00019  -0.00019   3.25574
    R3        2.02135   0.00000   0.00000   0.00002   0.00002   2.02137
    R4        2.76407   0.00010   0.00000   0.00023   0.00023   2.76430
    R5        2.50125   0.00003   0.00000   0.00012   0.00012   2.50137
    R6        2.03269  -0.00001   0.00000  -0.00002  -0.00002   2.03268
    R7        2.49520  -0.00004   0.00000  -0.00005  -0.00005   2.49515
    R8        2.02954  -0.00002   0.00000  -0.00006  -0.00006   2.02948
    R9        2.03018   0.00000   0.00000   0.00001   0.00001   2.03019
    A1        2.15744   0.00000   0.00000   0.00003   0.00003   2.15747
    A2        2.11569  -0.00002   0.00000  -0.00021  -0.00021   2.11547
    A3        2.01006   0.00002   0.00000   0.00018   0.00018   2.01024
    A4        2.17244   0.00006   0.00000   0.00030   0.00030   2.17275
    A5        2.10584  -0.00004   0.00000  -0.00017  -0.00017   2.10568
    A6        2.00490  -0.00002   0.00000  -0.00014  -0.00014   2.00476
    A7        2.01777   0.00003   0.00000   0.00018   0.00018   2.01795
    A8        2.15458  -0.00001   0.00000  -0.00007  -0.00007   2.15451
    A9        2.11084  -0.00002   0.00000  -0.00011  -0.00011   2.11073
   A10        2.12531   0.00000   0.00000  -0.00001  -0.00001   2.12530
   A11        2.10904  -0.00001   0.00000  -0.00007  -0.00007   2.10896
   A12        2.04884   0.00001   0.00000   0.00009   0.00009   2.04892
    D1        3.14159   0.00000   0.00000   0.00000   0.00000   3.14159
    D2        0.00000   0.00000   0.00000   0.00000   0.00000   0.00000
    D3        0.00000   0.00000   0.00000   0.00000   0.00000   0.00000
    D4        3.14159   0.00000   0.00000   0.00000   0.00000   3.14159
    D5        0.00000   0.00000   0.00000   0.00000   0.00000   0.00000
    D6        3.14159   0.00000   0.00000   0.00000   0.00000   3.14159
    D7        3.14159   0.00000   0.00000   0.00000   0.00000   3.14159
    D8        0.00000   0.00000   0.00000   0.00000   0.00000   0.00000
    D9        0.00000   0.00000   0.00000   0.00000   0.00000   0.00000
   D10        3.14159   0.00000   0.00000   0.00000   0.00000   3.14159
   D11        3.14159   0.00000   0.00000   0.00000   0.00000   3.14159
   D12        0.00000   0.00000   0.00000   0.00000   0.00000   0.00000
         Item               Value     Threshold  Converged?
 Maximum Force            0.000097     0.000450     YES
 RMS     Force            0.000026     0.000300     YES
 Maximum Displacement     0.000793     0.001800     YES
 RMS     Displacement     0.000229     0.001200     YES
 Predicted change in Energy=-4.170563D-08
 Optimization completed.
    -- Stationary point found.
                           ----------------------------
                           !   Optimized Parameters   !
                           ! (Angstroms and Degrees)  !
 --------------------------                            --------------------------
 ! Name  Definition              Value          Derivative Info.                !
 --------------------------------------------------------------------------------
 ! R1    R(1,2)                  1.3175         -DE/DX =    0.0                 !
 ! R2    R(1,8)                  1.723          -DE/DX =    0.0                 !
 ! R3    R(1,9)                  1.0697         -DE/DX =    0.0                 !
 ! R4    R(2,3)                  1.4627         -DE/DX =    0.0001              !
 ! R5    R(2,10)                 1.3236         -DE/DX =    0.0                 !
 ! R6    R(3,4)                  1.0757         -DE/DX =    0.0                 !
 ! R7    R(3,5)                  1.3204         -DE/DX =    0.0                 !
 ! R8    R(5,6)                  1.074          -DE/DX =    0.0                 !
 ! R9    R(5,7)                  1.0743         -DE/DX =    0.0                 !
 ! A1    A(2,1,8)              123.6123         -DE/DX =    0.0                 !
 ! A2    A(2,1,9)              121.2199         -DE/DX =    0.0                 !
 ! A3    A(8,1,9)              115.1678         -DE/DX =    0.0                 !
 ! A4    A(1,2,3)              124.4717         -DE/DX =    0.0001              !
 ! A5    A(1,2,10)             120.6559         -DE/DX =    0.0                 !
 ! A6    A(3,2,10)             114.8724         -DE/DX =    0.0                 !
 ! A7    A(2,3,4)              115.6095         -DE/DX =    0.0                 !
 ! A8    A(2,3,5)              123.4484         -DE/DX =    0.0                 !
 ! A9    A(4,3,5)              120.942          -DE/DX =    0.0                 !
 ! A10   A(3,5,6)              121.7712         -DE/DX =    0.0                 !
 ! A11   A(3,5,7)              120.839          -DE/DX =    0.0                 !
 ! A12   A(6,5,7)              117.3898         -DE/DX =    0.0                 !
 ! D1    D(8,1,2,3)            180.0            -DE/DX =    0.0                 !
 ! D2    D(8,1,2,10)             0.0            -DE/DX =    0.0                 !
 ! D3    D(9,1,2,3)              0.0            -DE/DX =    0.0                 !
 ! D4    D(9,1,2,10)           180.0            -DE/DX =    0.0                 !
 ! D5    D(1,2,3,4)              0.0            -DE/DX =    0.0                 !
 ! D6    D(1,2,3,5)            180.0            -DE/DX =    0.0                 !
 ! D7    D(10,2,3,4)           180.0            -DE/DX =    0.0                 !
 ! D8    D(10,2,3,5)             0.0            -DE/DX =    0.0                 !
 ! D9    D(2,3,5,6)              0.0            -DE/DX =    0.0                 !
 ! D10   D(2,3,5,7)            180.0            -DE/DX =    0.0                 !
 ! D11   D(4,3,5,6)            180.0            -DE/DX =    0.0                 !
 ! D12   D(4,3,5,7)              0.0            -DE/DX =    0.0                 !
 --------------------------------------------------------------------------------
 GradGradGradGradGradGradGradGradGradGradGradGradGradGradGradGradGradGrad

 1\1\GINC-MALLOS71\Freq\RHF\6-31G(d,p)\C4H4Cl1F1\MARLIN\26-Oct-2024\0\\
 #N Geom=AllCheck Guess=TCheck SCRF=Check GenChk RHF/6-31G(d,p) Freq\\T
 itle Card Required\\0,1\C,-2.096323727,-1.6767415107,0.\C,-1.396652849
 ,-0.5603525818,0.\C,0.0647506167,-0.4992230295,0.\H,0.5698194249,-1.44
 89281232,0.\C,0.7458592443,0.6319525917,0.\H,0.2553485981,1.5873843121
 ,0.\H,1.8201786386,0.6279360501,0.\Cl,-3.8186710519,-1.7229199503,0.\H
 ,-1.6156489603,-2.6323062983,0.\F,-2.0030592744,0.6161677399,0.\\Versi
 on=EM64L-G09RevA.01\State=1-A'\HF=-712.6767049\RMSD=1.969e-09\RMSF=3.3
 15e-05\ZeroPoint=0.0742926\Thermal=0.08021\Dipole=1.1307726,-0.2408782
 ,0.\DipoleDeriv=0.7979838,0.1120383,0.,-0.1131446,-0.1341026,0.,0.,0.,
 -0.2864832,0.3845304,-0.241921,0.,0.1756017,1.1249773,0.,0.,0.,0.29638
 ,0.1438363,0.0805875,0.,-0.2271831,-0.0363005,0.,0.,0.,-0.1692512,0.00
 66669,0.0085697,0.,0.0621389,-0.0459315,0.,0.,0.,0.1485035,-0.0221857,
 -0.1227979,0.,-0.0020292,0.0625729,0.,0.,0.,-0.2603391,0.0414795,0.063
 877,0.,0.0395509,0.0012185,0.,0.,0.,0.1613474,-0.091088,-0.0185468,0.,
 0.0091867,0.054115,0.,0.,0.,0.1410303,-0.8049677,-0.2845794,0.,0.02098
 26,-0.120905,0.,0.,0.,-0.055195,-0.0963497,0.0350409,0.,0.0464179,0.07
 1249,0.,0.,0.,0.1850459,-0.3599058,0.3677318,0.,-0.0115219,-0.9768933,
 0.,0.,0.,-0.1610388\Polar=77.5916797,26.1845512,62.8728838,0.,0.,21.46
 43857\HyperPolar=205.8183401,83.2652134,78.3229052,25.4263777,0.,0.,0.
 ,-1.8497001,1.1752822,0.\PG=CS [SG(C4H4Cl1F1)]\NImag=0\\0.63809413,0.1
 1787357,0.94046674,0.,0.,0.10890576,-0.26409822,-0.22738424,0.,0.77672
 030,-0.25872689,-0.49191276,0.,0.14626483,0.96068061,0.,0.,-0.06866500
 ,0.,0.,0.17676977,-0.02705023,-0.01835269,0.,-0.28761140,0.00486097,0.
 ,0.74212551,-0.03587185,0.00129487,0.,-0.00874933,-0.11314583,0.,0.109
 01735,0.97387788,0.,0.,0.01025498,0.,0.,-0.07567833,0.,0.,0.15125483,0
 .00028578,-0.00061680,0.,-0.00757124,0.03243857,0.,-0.14109725,0.12752
 106,0.,0.14296422,-0.00053875,-0.00058739,0.,-0.00270003,0.00312581,0.
 ,0.12845390,-0.30467172,0.,-0.13652542,0.32389020,0.,0.,-0.00081378,0.
 ,0.,0.00161626,0.,0.,-0.04709114,0.,0.,0.03115508,-0.00172657,0.006464
 01,0.,-0.03003493,-0.04405731,0.,-0.27025103,-0.22560759,0.,0.01506059
 ,0.01736815,0.,0.80814346,0.00607729,0.00500006,0.,-0.01943681,0.00270
 881,0.,-0.21900474,-0.52228611,0.,-0.01990576,-0.02265120,0.,0.1155093
 0,0.92342728,0.,0.,0.00102867,0.,0.,0.00701903,0.,0.,-0.06379052,0.,0.
 ,0.00759392,0.,0.,0.14224541,0.00003376,0.00034368,0.,0.00090240,-0.00
 112898,0.,0.01617879,-0.01769922,0.,-0.00181109,-0.00365814,0.,-0.1385
 3734,0.13285675,0.,0.13465952,-0.00020855,0.00001511,0.,0.00258692,-0.
 00210436,0.,0.01723995,-0.02170813,0.,-0.00364341,-0.00297247,0.,0.124
 97171,-0.31448112,0.,-0.13899327,0.33239886,0.,0.,0.00029452,0.,0.,-0.
 00862780,0.,0.,0.00801692,0.,0.,0.01339245,0.,0.,-0.04771635,0.,0.,0.0
 2977624,-0.00054761,0.00002440,0.,0.00099721,-0.00184069,0.,-0.0123664
 9,0.00389452,0.,0.00119738,-0.00027348,0.,-0.38197358,0.00319920,0.,-0
 .00871554,-0.00220642,0.,0.40152405,-0.00097656,0.00069741,0.,-0.00106
 237,-0.00710599,0.,-0.03463935,0.00535234,0.,0.00025114,0.00140337,0.,
 0.00990752,-0.06978760,0.,0.02833460,0.00532078,0.,-0.00205020,0.06267
 687,0.,0.,-0.00036469,0.,0.,0.01436624,0.,0.,0.00777113,0.,0.,-0.00931
 202,0.,0.,-0.04570280,0.,0.,0.00488716,0.,0.,0.02915779,-0.23280560,-0
 .00665386,0.,-0.04758431,0.01122274,0.,0.00516564,-0.00579556,0.,0.000
 32590,0.00044247,0.,-0.00336650,0.00024430,0.,-0.00004783,-0.00003468,
 0.,-0.00030993,-0.00056135,0.,0.29789802,0.00103813,-0.04875476,0.,-0.
 02799656,0.00398024,0.,0.00063037,-0.00365992,0.,-0.00018661,0.0002942
 2,0.,-0.00142354,0.00034549,0.,0.00005312,0.00007168,0.,-0.00015709,-0
 .00026309,0.,0.01142708,0.03662064,0.,0.,-0.02478637,0.,0.,0.00891010,
 0.,0.,0.00829967,0.,0.,-0.00023539,0.,0.,0.00015769,0.,0.,0.00031985,0
 .,0.,-0.00114416,0.,0.,0.01221837,-0.12155039,0.13706306,0.,0.01500774
 ,-0.01357753,0.,-0.00035791,-0.00099172,0.,-0.00062220,-0.00078991,0.,
 0.00009106,0.00027591,0.,0.00008423,0.00002671,0.,-0.00003912,-0.00000
 411,0.,-0.02625757,0.02050160,0.,0.13498507,0.12763915,-0.33637540,0.,
 0.01818704,-0.01554062,0.,0.00132486,0.00022757,0.,-0.00090040,0.00047
 617,0.,-0.00041797,0.00022694,0.,0.00015559,0.00017560,0.,-0.00001934,
 -0.00001030,0.,-0.00655873,0.00813514,0.,-0.13613479,0.34632427,0.,0.,
 -0.03706454,0.,0.,0.00048221,0.,0.,-0.00568254,0.,0.,0.00053195,0.,0.,
 -0.00004748,0.,0.,0.00010459,0.,0.,0.00047290,0.,0.,0.00286363,0.,0.,0
 .02557179,0.00936495,-0.00876112,0.,-0.15672754,0.12454429,0.,-0.02473
 564,0.05428235,0.,-0.00873208,-0.00177878,0.,0.00259483,0.00018456,0.,
 -0.00274690,0.00026103,0.,0.00023362,0.00080068,0.,0.00698218,-0.00388
 650,0.,-0.00134090,-0.00327542,0.,0.17510750,0.04369446,-0.06984387,0.
 ,0.12029056,-0.34068591,0.,0.01046938,-0.01528093,0.,0.00156764,0.0016
 9301,0.,-0.00271429,-0.00250254,0.,-0.00026413,0.00328405,0.,-0.000570
 89,0.00171622,0.,-0.00373241,0.00323036,0.,-0.00636921,-0.00363937,0.,
 -0.16237110,0.42202897,0.,0.,0.01121045,0.,0.,-0.05619247,0.,0.,0.0066
 4500,0.,0.,0.00316269,0.,0.,-0.00078757,0.,0.,-0.00044757,0.,0.,-0.000
 13154,0.,0.,-0.00660340,0.,0.,0.01276749,0.,0.,0.03037694\\0.00010861,
 -0.00000824,0.,0.00002472,0.00006617,0.,-0.00009611,-0.00003884,0.,-0.
 00001743,-0.00001701,0.,0.00002398,0.00000465,0.,-0.00000323,0.0000234
 0,0.,-0.00000390,0.00000887,0.,-0.00004087,-0.00000736,0.,-0.00002140,
 -0.00000601,0.,0.00002563,-0.00002562,0.\\\@


 HOW IS IT THAT THE SKY FEEDS THE STARS?

                           -- LUCRETIUS
 Job cpu time:  0 days  0 hours  1 minutes 31.0 seconds.
 File lengths (MBytes):  RWF=     21 Int=      0 D2E=      0 Chk=      2 Scr=      1
 Normal termination of Gaussian 09 at Sat Oct 26 20:12:32 2024.
