 Entering Gaussian System, Link 0=g09
 Initial command:
 /u/local/G09/g09/l1.exe /tmp/marlin/23002.mallos00.local/Gau-21772.inp -scrdir=/tmp/marlin/23002.mallos00.local/
 Entering Link 1 = /u/local/G09/g09/l1.exe PID=     21774.
  
 Copyright (c) 1988,1990,1992,1993,1995,1998,2003,2009, Gaussian, Inc.
                  All Rights Reserved.
  
 This is part of the Gaussian(R) 09 program.  It is based on
 the Gaussian(R) 03 system (copyright 2003, Gaussian, Inc.),
 the Gaussian(R) 98 system (copyright 1998, Gaussian, Inc.),
 the Gaussian(R) 94 system (copyright 1995, Gaussian, Inc.),
 the Gaussian 92(TM) system (copyright 1992, Gaussian, Inc.),
 the Gaussian 90(TM) system (copyright 1990, Gaussian, Inc.),
 the Gaussian 88(TM) system (copyright 1988, Gaussian, Inc.),
 the Gaussian 86(TM) system (copyright 1986, Carnegie Mellon
 University), and the Gaussian 82(TM) system (copyright 1983,
 Carnegie Mellon University). Gaussian is a federally registered
 trademark of Gaussian, Inc.
  
 This software contains proprietary and confidential information,
 including trade secrets, belonging to Gaussian, Inc.
  
 This software is provided under written license and may be
 used, copied, transmitted, or stored only in accord with that
 written license.
  
 The following legend is applicable only to US Government
 contracts under FAR:
  
                    RESTRICTED RIGHTS LEGEND
  
 Use, reproduction and disclosure by the US Government is
 subject to restrictions as set forth in subparagraphs (a)
 and (c) of the Commercial Computer Software - Restricted
 Rights clause in FAR 52.227-19.
  
 Gaussian, Inc.
 340 Quinnipiac St., Bldg. 40, Wallingford CT 06492
  
  
 ---------------------------------------------------------------
 Warning -- This program may not be used in any manner that
 competes with the business of Gaussian, Inc. or will provide
 assistance to any competitor of Gaussian, Inc.  The licensee
 of this program is prohibited from giving any competitor of
 Gaussian, Inc. access to this program.  By using this program,
 the user acknowledges that Gaussian, Inc. is engaged in the
 business of creating and licensing software in the field of
 computational chemistry and represents and warrants to the
 licensee that it is not a competitor of Gaussian, Inc. and that
 it will not use this program in any manner prohibited above.
 ---------------------------------------------------------------
  

 Cite this work as:
 Gaussian 09, Revision A.01,
 M. J. Frisch, G. W. Trucks, H. B. Schlegel, G. E. Scuseria, 
 M. A. Robb, J. R. Cheeseman, G. Scalmani, V. Barone, B. Mennucci, 
 G. A. Petersson, H. Nakatsuji, M. Caricato, X. Li, H. P. Hratchian, 
 A. F. Izmaylov, J. Bloino, G. Zheng, J. L. Sonnenberg, M. Hada, 
 M. Ehara, K. Toyota, R. Fukuda, J. Hasegawa, M. Ishida, T. Nakajima, 
 Y. Honda, O. Kitao, H. Nakai, T. Vreven, J. A. Montgomery, Jr., 
 J. E. Peralta, F. Ogliaro, M. Bearpark, J. J. Heyd, E. Brothers, 
 K. N. Kudin, V. N. Staroverov, R. Kobayashi, J. Normand, 
 K. Raghavachari, A. Rendell, J. C. Burant, S. S. Iyengar, J. Tomasi, 
 M. Cossi, N. Rega, J. M. Millam, M. Klene, J. E. Knox, J. B. Cross, 
 V. Bakken, C. Adamo, J. Jaramillo, R. Gomperts, R. E. Stratmann, 
 O. Yazyev, A. J. Austin, R. Cammi, C. Pomelli, J. W. Ochterski, 
 R. L. Martin, K. Morokuma, V. G. Zakrzewski, G. A. Voth, 
 P. Salvador, J. J. Dannenberg, S. Dapprich, A. D. Daniels, 
 O. Farkas, J. B. Foresman, J. V. Ortiz, J. Cioslowski, 
 and D. J. Fox, Gaussian, Inc., Wallingford CT, 2009.
 
 ******************************************
 Gaussian 09:  EM64L-G09RevA.01  8-May-2009
                26-Oct-2024 
 ******************************************
 %mem=103GB
 %nproc=20
 Will use up to   20 processors via shared memory.
 %chk=3-base1.chk
 ---------------------------------------------
 # opt freq=noraman hf/6-31G geom=connectivity
 ---------------------------------------------
 1/18=20,19=15,38=1,57=2/1,3;
 2/9=110,12=2,17=6,18=5,40=1/2;
 3/5=1,6=6,11=9,16=1,25=1,30=1,71=1/1,2,3;
 4//1;
 5/5=2,38=5/2;
 6/7=2,8=2,9=2,10=2,28=1/1;
 7//1,2,3,16;
 1/18=20,19=15/3(2);
 2/9=110/2;
 99//99;
 2/9=110/2;
 3/5=1,6=6,11=9,16=1,25=1,30=1,71=1/1,2,3;
 4/5=5,16=3/1;
 5/5=2,38=5/2;
 7//1,2,3,16;
 1/18=20,19=15/3(-5);
 2/9=110/2;
 6/7=2,8=2,9=2,10=2,19=2,28=1/1;
 99/9=1/99;
 -------------------
 Title Card Required
 -------------------
 Symbolic Z-matrix:
 Charge =  0 Multiplicity = 1
 C                    -2.1124   -1.70543   0. 
 C                    -1.43713  -0.53045   0. 
 C                     0.10287  -0.53045   0. 
 H                     0.63603  -1.45815   0. 
 C                     0.78511   0.6405    0. 
 H                     0.25747   1.57135   0. 
 H                     1.8551    0.63414   0. 
 Cl                   -3.8724   -1.70543   0. 
 H                    -1.57924  -2.63313   0. 
 F                    -2.10981   0.64002   0. 
 

 GradGradGradGradGradGradGradGradGradGradGradGradGradGradGradGradGradGrad
 Berny optimization.
 Initialization pass.
                           ----------------------------
                           !    Initial Parameters    !
                           ! (Angstroms and Degrees)  !
 --------------------------                            --------------------------
 ! Name  Definition              Value          Derivative Info.                !
 --------------------------------------------------------------------------------
 ! R1    R(1,2)                  1.3552         estimate D2E/DX2                !
 ! R2    R(1,8)                  1.76           estimate D2E/DX2                !
 ! R3    R(1,9)                  1.07           estimate D2E/DX2                !
 ! R4    R(2,3)                  1.54           estimate D2E/DX2                !
 ! R5    R(2,10)                 1.35           estimate D2E/DX2                !
 ! R6    R(3,4)                  1.07           estimate D2E/DX2                !
 ! R7    R(3,5)                  1.3552         estimate D2E/DX2                !
 ! R8    R(5,6)                  1.07           estimate D2E/DX2                !
 ! R9    R(5,7)                  1.07           estimate D2E/DX2                !
 ! A1    A(2,1,8)              119.8865         estimate D2E/DX2                !
 ! A2    A(2,1,9)              120.2269         estimate D2E/DX2                !
 ! A3    A(8,1,9)              119.8865         estimate D2E/DX2                !
 ! A4    A(1,2,3)              119.8865         estimate D2E/DX2                !
 ! A5    A(1,2,10)             120.2269         estimate D2E/DX2                !
 ! A6    A(3,2,10)             119.8865         estimate D2E/DX2                !
 ! A7    A(2,3,4)              119.8865         estimate D2E/DX2                !
 ! A8    A(2,3,5)              120.2269         estimate D2E/DX2                !
 ! A9    A(4,3,5)              119.8865         estimate D2E/DX2                !
 ! A10   A(3,5,6)              120.2269         estimate D2E/DX2                !
 ! A11   A(3,5,7)              119.8865         estimate D2E/DX2                !
 ! A12   A(6,5,7)              119.8865         estimate D2E/DX2                !
 ! D1    D(8,1,2,3)            180.0            estimate D2E/DX2                !
 ! D2    D(8,1,2,10)             0.0            estimate D2E/DX2                !
 ! D3    D(9,1,2,3)              0.0            estimate D2E/DX2                !
 ! D4    D(9,1,2,10)           180.0            estimate D2E/DX2                !
 ! D5    D(1,2,3,4)              0.0            estimate D2E/DX2                !
 ! D6    D(1,2,3,5)            180.0            estimate D2E/DX2                !
 ! D7    D(10,2,3,4)           180.0            estimate D2E/DX2                !
 ! D8    D(10,2,3,5)             0.0            estimate D2E/DX2                !
 ! D9    D(2,3,5,6)              0.0            estimate D2E/DX2                !
 ! D10   D(2,3,5,7)            180.0            estimate D2E/DX2                !
 ! D11   D(4,3,5,6)            180.0            estimate D2E/DX2                !
 ! D12   D(4,3,5,7)              0.0            estimate D2E/DX2                !
 --------------------------------------------------------------------------------
 Trust Radius=3.00D-01 FncErr=1.00D-07 GrdErr=1.00D-07
 Number of steps in this run=  43 maximum allowed number of steps= 100.
 GradGradGradGradGradGradGradGradGradGradGradGradGradGradGradGradGradGrad

                          Input orientation:                          
 ---------------------------------------------------------------------
 Center     Atomic      Atomic             Coordinates (Angstroms)
 Number     Number       Type             X           Y           Z
 ---------------------------------------------------------------------
      1          6           0       -2.112403   -1.705426    0.000000
      2          6           0       -1.437129   -0.530449    0.000000
      3          6           0        0.102871   -0.530449    0.000000
      4          1           0        0.636035   -1.458154    0.000000
      5          6           0        0.785114    0.640495    0.000000
      6          1           0        0.257472    1.571352    0.000000
      7          1           0        1.855096    0.634138    0.000000
      8         17           0       -3.872403   -1.705426    0.000000
      9          1           0       -1.579240   -2.633131    0.000000
     10          9           0       -2.109812    0.640020    0.000000
 ---------------------------------------------------------------------
                    Distance matrix (angstroms):
                    1          2          3          4          5
     1  C    0.000000
     2  C    1.355200   0.000000
     3  C    2.507591   1.540000   0.000000
     4  H    2.759539   2.271265   1.070000   0.000000
     5  C    3.728131   2.511867   1.355200   2.103938   0.000000
     6  H    4.043956   2.699859   2.107479   3.053066   1.070000
     7  H    4.605932   3.492135   2.103938   2.421527   1.070000
     8  Cl   1.760000   2.703911   4.145284   4.515214   5.214961
     9  H    1.070000   2.107479   2.692725   2.507591   4.038168
    10  F    2.345448   1.350000   2.503191   3.455721   2.894927
                    6          7          8          9         10
     6  H    0.000000
     7  H    1.852234   0.000000
     8  Cl   5.271920   6.186906   0.000000
     9  H    4.588157   4.740222   2.473709   0.000000
    10  F    2.543897   3.964912   2.933913   3.315875   0.000000
 Stoichiometry    C4H4ClF
 Framework group  CS[SG(C4H4ClF)]
 Deg. of freedom    17
 Full point group                 CS      NOp   2
 Largest Abelian subgroup         CS      NOp   2
 Largest concise Abelian subgroup C1      NOp   1
                         Standard orientation:                         
 ---------------------------------------------------------------------
 Center     Atomic      Atomic             Coordinates (Angstroms)
 Number     Number       Type             X           Y           Z
 ---------------------------------------------------------------------
      1          6           0        1.004077   -0.267605    0.000000
      2          6           0       -0.170900    0.407669    0.000000
      3          6           0       -0.170900    1.947669    0.000000
      4          1           0        0.756805    2.480833    0.000000
      5          6           0       -1.341844    2.629912    0.000000
      6          1           0       -2.272701    2.102270    0.000000
      7          1           0       -1.335487    3.699893    0.000000
      8         17           0        1.004077   -2.027605    0.000000
      9          1           0        1.931782    0.265558    0.000000
     10          9           0       -1.341369   -0.265014    0.000000
 ---------------------------------------------------------------------
 Rotational constants (GHZ):      9.2917918      1.4010922      1.2175066
 Standard basis: 6-31G (6D, 7F)
 There are    53 symmetry adapted basis functions of A'  symmetry.
 There are    13 symmetry adapted basis functions of A"  symmetry.
 Integral buffers will be    131072 words long.
 Raffenetti 1 integral format.
 Two-electron integral symmetry is turned on.
    66 basis functions,   172 primitive gaussians,    66 cartesian basis functions
    27 alpha electrons       27 beta electrons
       nuclear repulsion energy       258.7779846651 Hartrees.
 NAtoms=   10 NActive=   10 NUniq=   10 SFac= 7.50D-01 NAtFMM=   80 NAOKFM=F Big=F
 One-electron integrals computed using PRISM.
 NBasis=    66 RedAO= T  NBF=    53    13
 NBsUse=    66 1.00D-06 NBFU=    53    13
 Harris functional with IExCor=  205 diagonalized for initial guess.
 ExpMin= 1.43D-01 ExpMax= 2.52D+04 ExpMxC= 3.78D+03 IAcc=1 IRadAn=         1 AccDes= 0.00D+00
 HarFok:  IExCor=  205 AccDes= 0.00D+00 IRadAn=         1 IDoV= 1
 ScaDFX=  1.000000  1.000000  1.000000  1.000000
 FoFCou: FMM=F IPFlag=           0 FMFlag=      100000 FMFlg1=           0
         NFxFlg=           0 DoJE=T BraDBF=F KetDBF=T FulRan=T
         Omega=  0.000000  0.000000  1.000000  0.000000  0.000000 ICntrl=     500 IOpCl=  0
         NMat0=    1 NMatS0=    1 NMatT0=    0 NMatD0=    1 NMtDS0=    0 NMtDT0=    0
         I1Cent=           4 NGrid=           0.
 Petite list used in FoFCou.
 Initial guess orbital symmetries:
       Occupied  (A') (A') (A') (A') (A') (A') (A') (A') (A') (A")
                 (A') (A') (A') (A') (A') (A') (A') (A') (A') (A")
                 (A') (A') (A') (A") (A") (A') (A")
       Virtual   (A") (A') (A") (A') (A') (A') (A') (A') (A') (A')
                 (A') (A') (A') (A") (A') (A') (A") (A") (A') (A')
                 (A") (A') (A') (A") (A') (A') (A') (A') (A') (A')
                 (A') (A') (A') (A') (A") (A') (A') (A') (A')
 The electronic state of the initial guess is 1-A'.
 Requested convergence on RMS density matrix=1.00D-08 within 128 cycles.
 Requested convergence on MAX density matrix=1.00D-06.
 Requested convergence on             energy=1.00D-06.
 No special actions if energy rises.
 Keep R1 ints in memory in canonical form, NReq=3278450.
 SCF Done:  E(RHF) =  -712.549223977     A.U. after   13 cycles
             Convg  =    0.9523D-08             -V/T =  2.0000

 **********************************************************************

            Population analysis using the SCF density.

 **********************************************************************

 Orbital symmetries:
       Occupied  (A') (A') (A') (A') (A') (A') (A') (A') (A') (A")
                 (A') (A') (A') (A') (A') (A') (A') (A") (A') (A')
                 (A') (A') (A') (A") (A') (A") (A")
       Virtual   (A") (A') (A") (A') (A') (A') (A') (A') (A') (A')
                 (A') (A') (A") (A') (A') (A') (A") (A') (A") (A')
                 (A") (A') (A") (A') (A') (A') (A') (A') (A') (A')
                 (A') (A') (A') (A') (A") (A') (A') (A') (A')
 The electronic state is 1-A'.
 Alpha  occ. eigenvalues -- -104.82795 -26.32981 -11.37632 -11.31844 -11.28538
 Alpha  occ. eigenvalues --  -11.26293 -10.56837  -8.03697  -8.03263  -8.03255
 Alpha  occ. eigenvalues --   -1.64672  -1.16684  -1.09424  -1.01186  -0.83910
 Alpha  occ. eigenvalues --   -0.80794  -0.74219  -0.70508  -0.68200  -0.64150
 Alpha  occ. eigenvalues --   -0.61028  -0.57068  -0.53038  -0.51243  -0.45843
 Alpha  occ. eigenvalues --   -0.43884  -0.33972
 Alpha virt. eigenvalues --    0.09530   0.19219   0.21908   0.22382   0.27114
 Alpha virt. eigenvalues --    0.29485   0.31576   0.38101   0.45226   0.47259
 Alpha virt. eigenvalues --    0.53022   0.59638   0.64244   0.64755   0.67440
 Alpha virt. eigenvalues --    0.69256   0.73473   0.77733   0.79809   0.82451
 Alpha virt. eigenvalues --    0.87284   0.89099   0.89867   0.93239   1.04621
 Alpha virt. eigenvalues --    1.08506   1.12784   1.18840   1.20624   1.21587
 Alpha virt. eigenvalues --    1.23208   1.30521   1.44840   1.47042   1.58722
 Alpha virt. eigenvalues --    1.59797   1.67725   1.84303   2.57581
          Condensed to atoms (all electrons):
              1          2          3          4          5          6
     1  C    5.733948   0.378402  -0.070703   0.000415   0.003751   0.000465
     2  C    0.378402   4.744410   0.343233  -0.022410  -0.058178  -0.002364
     3  C   -0.070703   0.343233   5.107945   0.383934   0.559452  -0.047306
     4  H    0.000415  -0.022410   0.383934   0.452106  -0.031002   0.001980
     5  C    0.003751  -0.058178   0.559452  -0.031002   5.070014   0.400566
     6  H    0.000465  -0.002364  -0.047306   0.001980   0.400566   0.454126
     7  H   -0.000103   0.002754  -0.038066  -0.001384   0.389061  -0.018667
     8  Cl   0.163627  -0.096235   0.003003  -0.000038  -0.000099  -0.000003
     9  H    0.385006  -0.044074   0.001800   0.001413  -0.000010  -0.000003
    10  F   -0.080338   0.226674  -0.054756   0.000854   0.006235   0.002193
              7          8          9         10
     1  C   -0.000103   0.163627   0.385006  -0.080338
     2  C    0.002754  -0.096235  -0.044074   0.226674
     3  C   -0.038066   0.003003   0.001800  -0.054756
     4  H   -0.001384  -0.000038   0.001413   0.000854
     5  C    0.389061  -0.000099  -0.000010   0.006235
     6  H   -0.018667  -0.000003  -0.000003   0.002193
     7  H    0.481066   0.000001  -0.000003   0.000100
     8  Cl   0.000001  16.862515  -0.026212   0.005227
     9  H   -0.000003  -0.026212   0.441043   0.001441
    10  F    0.000100   0.005227   0.001441   9.313559
 Mulliken atomic charges:
              1
     1  C   -0.514471
     2  C    0.527788
     3  C   -0.188536
     4  H    0.214132
     5  C   -0.339790
     6  H    0.209012
     7  H    0.185242
     8  Cl   0.088214
     9  H    0.239599
    10  F   -0.421189
 Sum of Mulliken atomic charges =   0.00000
 Mulliken charges with hydrogens summed into heavy atoms:
              1
     1  C   -0.274872
     2  C    0.527788
     3  C    0.025596
     5  C    0.054463
     8  Cl   0.088214
    10  F   -0.421189
 Sum of Mulliken charges with hydrogens summed into heavy atoms =   0.00000
 Electronic spatial extent (au):  <R**2>=            885.9913
 Charge=              0.0000 electrons
 Dipole moment (field-independent basis, Debye):
    X=              0.9200    Y=              3.6572    Z=              0.0000  Tot=              3.7711
 Quadrupole moment (field-independent basis, Debye-Ang):
   XX=            -39.9998   YY=            -39.3333   ZZ=            -44.4574
   XY=              0.1778   XZ=              0.0000   YZ=              0.0000
 Traceless Quadrupole moment (field-independent basis, Debye-Ang):
   XX=              1.2637   YY=              1.9302   ZZ=             -3.1939
   XY=              0.1778   XZ=              0.0000   YZ=              0.0000
 Octapole moment (field-independent basis, Debye-Ang**2):
  XXX=             -4.7173  YYY=             10.9653  ZZZ=              0.0000  XYY=             -8.8299
  XXY=              6.4087  XXZ=              0.0000  XZZ=             -2.3800  YZZ=             -7.0219
  YYZ=              0.0000  XYZ=              0.0000
 Hexadecapole moment (field-independent basis, Debye-Ang**3):
 XXXX=           -288.9828 YYYY=           -717.8450 ZZZZ=            -45.8777 XXXY=            150.2478
 XXXZ=              0.0000 YYYX=            142.0792 YYYZ=              0.0000 ZZZX=              0.0000
 ZZZY=              0.0000 XXYY=           -175.1247 XXZZ=            -61.4899 YYZZ=           -153.9890
 XXYZ=              0.0000 YYXZ=              0.0000 ZZXY=             55.8871
 N-N= 2.587779846651D+02 E-N=-2.207474559331D+03  KE= 7.125592936233D+02
 Symmetry A'   KE= 6.562841391784D+02
 Symmetry A"   KE= 5.627515444483D+01
 Calling FoFJK, ICntrl=      2127 FMM=F ISym2X=1 I1Cent= 0 IOpClX= 0 NMat=1 NMatS=1 NMatT=0.
 ***** Axes restored to original set *****
 -------------------------------------------------------------------
 Center     Atomic                   Forces (Hartrees/Bohr)
 Number     Number              X              Y              Z
 -------------------------------------------------------------------
      1        6           0.032187596    0.051605073    0.000000000
      2        6           0.031382705   -0.075817607    0.000000000
      3        6          -0.024961408    0.058759830    0.000000000
      4        1          -0.008350003   -0.005103667    0.000000000
      5        6          -0.021066638   -0.037678310    0.000000000
      6        1           0.003197771    0.003108570    0.000000000
      7        1           0.000985162    0.003719538    0.000000000
      8       17          -0.011390880   -0.008752093    0.000000000
      9        1          -0.008876069   -0.000157631    0.000000000
     10        9           0.006891763    0.010316296    0.000000000
 -------------------------------------------------------------------
 Cartesian Forces:  Max     0.075817607 RMS     0.023763490

 GradGradGradGradGradGradGradGradGradGradGradGradGradGradGradGradGradGrad
 Berny optimization.
 Internal  Forces:  Max     0.050195116 RMS     0.015098793
 Search for a local minimum.
 Step number   1 out of a maximum of   43
 All quantities printed in internal units (Hartrees-Bohrs-Radians)
 Mixed Optimization -- RFO/linear search
 Second derivative matrix not updated -- first step.
     Eigenvalues ---    0.00237   0.01459   0.01463   0.02681   0.02681
     Eigenvalues ---    0.02681   0.02681   0.16000   0.16000   0.16000
     Eigenvalues ---    0.16000   0.22000   0.22000   0.25000   0.25000
     Eigenvalues ---    0.28519   0.29539   0.37230   0.37230   0.37230
     Eigenvalues ---    0.37230   0.53930   0.53930   0.550211000.00000
     Eigenvalues --- 1000.000001000.000001000.000001000.000001000.00000
     Eigenvalues --- 1000.000001000.000001000.00000
 RFO step:  Lambda=-2.14975247D-02 EMin= 2.36824121D-03
 Linear search not attempted -- first point.
 Iteration  1 RMS(Cart)=  0.05711595 RMS(Int)=  0.00125707
 Iteration  2 RMS(Cart)=  0.00208501 RMS(Int)=  0.00000099
 Iteration  3 RMS(Cart)=  0.00000115 RMS(Int)=  0.00000000
 Iteration  4 RMS(Cart)=  0.00000000 RMS(Int)=  0.00000000
 ClnCor:  largest displacement from symmetrization is 2.22D-16 for atom     4.
 Variable       Old X    -DE/DX   Delta X   Delta X   Delta X     New X
                                 (Linear)    (Quad)   (Total)
    R1        2.56096  -0.04296   0.00000  -0.07660  -0.07660   2.48436
    R2        3.32592   0.01139   0.00000   0.03595   0.03595   3.36186
    R3        2.02201  -0.00429   0.00000  -0.01088  -0.01088   2.01112
    R4        2.91018  -0.05020   0.00000  -0.16367  -0.16367   2.74651
    R5        2.55113   0.00551   0.00000   0.00964   0.00964   2.56077
    R6        2.02201   0.00026   0.00000   0.00067   0.00067   2.02268
    R7        2.56096  -0.03516   0.00000  -0.06269  -0.06269   2.49827
    R8        2.02201   0.00113   0.00000   0.00286   0.00286   2.02487
    R9        2.02201   0.00096   0.00000   0.00245   0.00245   2.02445
    A1        2.09241   0.01417   0.00000   0.05866   0.05866   2.15107
    A2        2.09836   0.00078   0.00000   0.01398   0.01398   2.11233
    A3        2.09241  -0.01494   0.00000  -0.07263  -0.07263   2.01978
    A4        2.09241   0.01920   0.00000   0.07073   0.07073   2.16314
    A5        2.09836   0.00458   0.00000   0.01686   0.01686   2.11522
    A6        2.09241  -0.02378   0.00000  -0.08759  -0.08759   2.00483
    A7        2.09241  -0.01439   0.00000  -0.07312  -0.07312   2.01929
    A8        2.09836   0.00900   0.00000   0.03726   0.03726   2.13561
    A9        2.09241   0.00539   0.00000   0.03586   0.03586   2.12828
   A10        2.09836   0.00331   0.00000   0.01821   0.01821   2.11657
   A11        2.09241   0.00211   0.00000   0.01165   0.01165   2.10406
   A12        2.09241  -0.00542   0.00000  -0.02986  -0.02986   2.06256
    D1        3.14159   0.00000   0.00000   0.00000   0.00000   3.14159
    D2        0.00000   0.00000   0.00000   0.00000   0.00000   0.00000
    D3        0.00000   0.00000   0.00000   0.00000   0.00000   0.00000
    D4        3.14159   0.00000   0.00000   0.00000   0.00000   3.14159
    D5        0.00000   0.00000   0.00000   0.00000   0.00000   0.00000
    D6        3.14159   0.00000   0.00000   0.00000   0.00000   3.14159
    D7        3.14159   0.00000   0.00000   0.00000   0.00000   3.14159
    D8        0.00000   0.00000   0.00000   0.00000   0.00000   0.00000
    D9        0.00000   0.00000   0.00000   0.00000   0.00000   0.00000
   D10        3.14159   0.00000   0.00000   0.00000   0.00000   3.14159
   D11        3.14159   0.00000   0.00000   0.00000   0.00000   3.14159
   D12        0.00000   0.00000   0.00000   0.00000   0.00000   0.00000
         Item               Value     Threshold  Converged?
 Maximum Force            0.050195     0.000450     NO 
 RMS     Force            0.015099     0.000300     NO 
 Maximum Displacement     0.220482     0.001800     NO 
 RMS     Displacement     0.058104     0.001200     NO 
 Predicted change in Energy=-1.149423D-02
 GradGradGradGradGradGradGradGradGradGradGradGradGradGradGradGradGradGrad

                          Input orientation:                          
 ---------------------------------------------------------------------
 Center     Atomic      Atomic             Coordinates (Angstroms)
 Number     Number       Type             X           Y           Z
 ---------------------------------------------------------------------
      1          6           0       -2.076275   -1.678076    0.000000
      2          6           0       -1.380759   -0.562460    0.000000
      3          6           0        0.071748   -0.511787    0.000000
      4          1           0        0.569211   -1.459516    0.000000
      5          6           0        0.740013    0.628904    0.000000
      6          1           0        0.230935    1.571763    0.000000
      7          1           0        1.811301    0.632459    0.000000
      8         17           0       -3.854835   -1.718639    0.000000
      9          1           0       -1.592601   -2.626057    0.000000
     10          9           0       -1.993138    0.646378    0.000000
 ---------------------------------------------------------------------
                    Distance matrix (angstroms):
                    1          2          3          4          5
     1  C    0.000000
     2  C    1.314665   0.000000
     3  C    2.444224   1.453390   0.000000
     4  H    2.654500   2.146414   1.070355   0.000000
     5  C    3.640555   2.432493   1.322027   2.095393   0.000000
     6  H    3.985558   2.674409   2.089622   3.050096   1.071515
     7  H    4.522369   3.408384   2.082149   2.432930   1.071294
     8  Cl   1.779022   2.730898   4.107863   4.431628   5.159805
     9  H    1.064240   2.074442   2.690761   2.456471   4.004480
    10  F    2.325940   1.355100   2.367509   3.316689   2.733207
                    6          7          8          9         10
     6  H    0.000000
     7  H    1.838437   0.000000
     8  Cl   5.245976   6.134555   0.000000
     9  H    4.576787   4.712163   2.437439   0.000000
    10  F    2.408908   3.804465   3.009854   3.296856   0.000000
 Stoichiometry    C4H4ClF
 Framework group  CS[SG(C4H4ClF)]
 Deg. of freedom    17
 Full point group                 CS      NOp   2
 Largest Abelian subgroup         CS      NOp   2
 Largest concise Abelian subgroup C1      NOp   1
                         Standard orientation:                         
 ---------------------------------------------------------------------
 Center     Atomic      Atomic             Coordinates (Angstroms)
 Number     Number       Type             X           Y           Z
 ---------------------------------------------------------------------
      1          6           0       -0.848857   -0.541610    0.000000
      2          6           0        0.000000    0.462275    0.000000
      3          6           0       -0.396805    1.860448    0.000000
      4          1           0       -1.451373    2.043607    0.000000
      5          6           0        0.484270    2.846075    0.000000
      6          1           0        1.537761    2.650369    0.000000
      7          1           0        0.159417    3.866929    0.000000
      8         17           0       -0.342527   -2.247056    0.000000
      9          1           0       -1.899439   -0.371655    0.000000
     10          9           0        1.338328    0.249730    0.000000
 ---------------------------------------------------------------------
 Rotational constants (GHZ):      9.8253177      1.4185498      1.2395826
 Standard basis: 6-31G (6D, 7F)
 There are    53 symmetry adapted basis functions of A'  symmetry.
 There are    13 symmetry adapted basis functions of A"  symmetry.
 Integral buffers will be    131072 words long.
 Raffenetti 1 integral format.
 Two-electron integral symmetry is turned on.
    66 basis functions,   172 primitive gaussians,    66 cartesian basis functions
    27 alpha electrons       27 beta electrons
       nuclear repulsion energy       261.7362743488 Hartrees.
 NAtoms=   10 NActive=   10 NUniq=   10 SFac= 7.50D-01 NAtFMM=   80 NAOKFM=F Big=F
 One-electron integrals computed using PRISM.
 NBasis=    66 RedAO= T  NBF=    53    13
 NBsUse=    66 1.00D-06 NBFU=    53    13
 Initial guess read from the read-write file.
 B after Tr=     0.000000    0.000000    0.000000
         Rot=    1.000000    0.000000    0.000000    0.000000 Ang=   0.00 deg.
 Initial guess orbital symmetries:
       Occupied  (A') (A') (A') (A') (A') (A') (A') (A') (A') (A")
                 (A') (A') (A') (A') (A') (A') (A') (A") (A') (A')
                 (A') (A') (A') (A") (A') (A") (A")
       Virtual   (A") (A') (A") (A') (A') (A') (A') (A') (A') (A')
                 (A') (A') (A") (A') (A') (A') (A") (A') (A") (A')
                 (A") (A') (A") (A') (A') (A') (A') (A') (A') (A')
                 (A') (A') (A') (A') (A") (A') (A') (A') (A')
 Harris functional with IExCor=  205 diagonalized for initial guess.
 ExpMin= 1.43D-01 ExpMax= 2.52D+04 ExpMxC= 3.78D+03 IAcc=1 IRadAn=         1 AccDes= 0.00D+00
 HarFok:  IExCor=  205 AccDes= 0.00D+00 IRadAn=         1 IDoV= 1
 ScaDFX=  1.000000  1.000000  1.000000  1.000000
 FoFCou: FMM=F IPFlag=           0 FMFlag=      100000 FMFlg1=           0
         NFxFlg=           0 DoJE=T BraDBF=F KetDBF=T FulRan=T
         Omega=  0.000000  0.000000  1.000000  0.000000  0.000000 ICntrl=     500 IOpCl=  0
         NMat0=    1 NMatS0=    1 NMatT0=    0 NMatD0=    1 NMtDS0=    0 NMtDT0=    0
         I1Cent=           4 NGrid=           0.
 Petite list used in FoFCou.
 Requested convergence on RMS density matrix=1.00D-08 within 128 cycles.
 Requested convergence on MAX density matrix=1.00D-06.
 Requested convergence on             energy=1.00D-06.
 No special actions if energy rises.
 Keep R1 ints in memory in canonical form, NReq=3278450.
 SCF Done:  E(RHF) =  -712.560311488     A.U. after   14 cycles
             Convg  =    0.7794D-08             -V/T =  1.9995
 Calling FoFJK, ICntrl=      2127 FMM=F ISym2X=1 I1Cent= 0 IOpClX= 0 NMat=1 NMatS=1 NMatT=0.
 ***** Axes restored to original set *****
 -------------------------------------------------------------------
 Center     Atomic                   Forces (Hartrees/Bohr)
 Number     Number              X              Y              Z
 -------------------------------------------------------------------
      1        6          -0.001818261    0.002228077    0.000000000
      2        6           0.005796562   -0.012504355    0.000000000
      3        6          -0.001683680    0.003717150    0.000000000
      4        1           0.001586883   -0.001000913    0.000000000
      5        6           0.004337816    0.000493002    0.000000000
      6        1           0.002075288    0.000660407    0.000000000
      7        1           0.000218453    0.002000061    0.000000000
      8       17          -0.000865442   -0.001770337    0.000000000
      9        1          -0.003153263   -0.002383230    0.000000000
     10        9          -0.006494356    0.008560137    0.000000000
 -------------------------------------------------------------------
 Cartesian Forces:  Max     0.012504355 RMS     0.003564691

 GradGradGradGradGradGradGradGradGradGradGradGradGradGradGradGradGradGrad
 Berny optimization.
 Using GEDIIS/GDIIS optimizer.
 Internal  Forces:  Max     0.010571044 RMS     0.003475002
 Search for a local minimum.
 Step number   2 out of a maximum of   43
 All quantities printed in internal units (Hartrees-Bohrs-Radians)
 Mixed Optimization -- RFO/linear search
 Update second derivatives using D2CorX and points    1    2
 DE= -1.11D-02 DEPred=-1.15D-02 R= 9.65D-01
 SS=  1.41D+00  RLast= 2.63D-01 DXNew= 5.0454D-01 7.9005D-01
 Trust test= 9.65D-01 RLast= 2.63D-01 DXMaxT set to 5.05D-01
 Use linear search instead of GDIIS.
     Eigenvalues ---    0.00237   0.01531   0.01532   0.02681   0.02681
     Eigenvalues ---    0.02681   0.02681   0.15162   0.16000   0.16000
     Eigenvalues ---    0.16226   0.20704   0.22131   0.24138   0.25351
     Eigenvalues ---    0.29477   0.32250   0.37213   0.37230   0.37230
     Eigenvalues ---    0.37317   0.53277   0.53981   0.607121000.00000
     Eigenvalues --- 1000.000001000.000001000.000001000.000001000.00000
     Eigenvalues --- 1000.000001000.000001000.00000
 RFO step:  Lambda=-1.26927210D-03 EMin= 2.36824121D-03
 Quartic linear search produced a step of -0.01899.
 Iteration  1 RMS(Cart)=  0.02801367 RMS(Int)=  0.00020931
 Iteration  2 RMS(Cart)=  0.00021819 RMS(Int)=  0.00000001
 Iteration  3 RMS(Cart)=  0.00000002 RMS(Int)=  0.00000000
 ClnCor:  largest displacement from symmetrization is 3.74D-11 for atom     8.
 Variable       Old X    -DE/DX   Delta X   Delta X   Delta X     New X
                                 (Linear)    (Quad)   (Total)
    R1        2.48436   0.00472   0.00145   0.00264   0.00409   2.48845
    R2        3.36186   0.00091  -0.00068   0.00585   0.00516   3.36703
    R3        2.01112   0.00069   0.00021   0.00096   0.00116   2.01229
    R4        2.74651   0.00674   0.00311   0.01004   0.01315   2.75966
    R5        2.56077   0.01057  -0.00018   0.01954   0.01936   2.58013
    R6        2.02268   0.00162  -0.00001   0.00432   0.00430   2.02698
    R7        2.49827   0.00607   0.00119   0.00616   0.00735   2.50562
    R8        2.02487  -0.00040  -0.00005  -0.00084  -0.00089   2.02398
    R9        2.02445   0.00023  -0.00005   0.00078   0.00074   2.02519
    A1        2.15107   0.00131  -0.00111   0.01056   0.00945   2.16052
    A2        2.11233   0.00326  -0.00027   0.02211   0.02184   2.13418
    A3        2.01978  -0.00457   0.00138  -0.03267  -0.03129   1.98849
    A4        2.16314   0.00617  -0.00134   0.02974   0.02840   2.19154
    A5        2.11522  -0.00555  -0.00032  -0.02031  -0.02063   2.09459
    A6        2.00483  -0.00062   0.00166  -0.00944  -0.00778   1.99705
    A7        2.01929  -0.00227   0.00139  -0.01450  -0.01311   2.00618
    A8        2.13561   0.00643  -0.00071   0.03152   0.03081   2.16642
    A9        2.12828  -0.00417  -0.00068  -0.01702  -0.01770   2.11058
   A10        2.11657   0.00154  -0.00035   0.01087   0.01053   2.12710
   A11        2.10406   0.00125  -0.00022   0.00859   0.00837   2.11243
   A12        2.06256  -0.00279   0.00057  -0.01946  -0.01890   2.04366
    D1        3.14159   0.00000   0.00000   0.00000   0.00000   3.14159
    D2        0.00000   0.00000   0.00000   0.00000   0.00000   0.00000
    D3        0.00000   0.00000   0.00000   0.00000   0.00000   0.00000
    D4        3.14159   0.00000   0.00000   0.00000   0.00000   3.14159
    D5        0.00000   0.00000   0.00000   0.00000   0.00000   0.00000
    D6        3.14159   0.00000   0.00000   0.00000   0.00000   3.14159
    D7        3.14159   0.00000   0.00000   0.00000   0.00000   3.14159
    D8        0.00000   0.00000   0.00000   0.00000   0.00000   0.00000
    D9        0.00000   0.00000   0.00000   0.00000   0.00000   0.00000
   D10        3.14159   0.00000   0.00000   0.00000   0.00000   3.14159
   D11        3.14159   0.00000   0.00000   0.00000   0.00000   3.14159
   D12        0.00000   0.00000   0.00000   0.00000   0.00000   0.00000
         Item               Value     Threshold  Converged?
 Maximum Force            0.010571     0.000450     NO 
 RMS     Force            0.003475     0.000300     NO 
 Maximum Displacement     0.075822     0.001800     NO 
 RMS     Displacement     0.027939     0.001200     NO 
 Predicted change in Energy=-6.371926D-04
 GradGradGradGradGradGradGradGradGradGradGradGradGradGradGradGradGradGrad

                          Input orientation:                          
 ---------------------------------------------------------------------
 Center     Atomic      Atomic             Coordinates (Angstroms)
 Number     Number       Type             X           Y           Z
 ---------------------------------------------------------------------
      1          6           0       -2.088102   -1.688609    0.000000
      2          6           0       -1.382457   -0.576806    0.000000
      3          6           0        0.075666   -0.496214    0.000000
      4          1           0        0.581042   -1.442330    0.000000
      5          6           0        0.757836    0.640757    0.000000
      6          1           0        0.268878    1.593675    0.000000
      7          1           0        1.829519    0.642068    0.000000
      8         17           0       -3.869335   -1.731710    0.000000
      9          1           0       -1.632724   -2.651183    0.000000
     10          9           0       -2.014723    0.633321    0.000000
 ---------------------------------------------------------------------
                    Distance matrix (angstroms):
                    1          2          3          4          5
     1  C    0.000000
     2  C    1.316829   0.000000
     3  C    2.470566   1.460349   0.000000
     4  H    2.680482   2.145801   1.072632   0.000000
     5  C    3.677677   2.462380   1.325918   2.090576   0.000000
     6  H    4.040883   2.727250   2.098801   3.052011   1.071043
     7  H    4.558487   3.435469   2.090858   2.429693   1.071684
     8  Cl   1.781754   2.741963   4.133943   4.459775   5.199933
     9  H    1.064856   2.089419   2.749998   2.522318   4.068372
    10  F    2.323088   1.365345   2.376043   3.323601   2.772569
                    6          7          8          9         10
     6  H    0.000000
     7  H    1.827883   0.000000
     8  Cl   5.308764   6.173472   0.000000
     9  H    4.651334   4.778350   2.418234   0.000000
    10  F    2.477320   3.844252   3.005487   3.306643   0.000000
 Stoichiometry    C4H4ClF
 Framework group  CS[SG(C4H4ClF)]
 Deg. of freedom    17
 Full point group                 CS      NOp   2
 Largest Abelian subgroup         CS      NOp   2
 Largest concise Abelian subgroup C1      NOp   1
                         Standard orientation:                         
 ---------------------------------------------------------------------
 Center     Atomic      Atomic             Coordinates (Angstroms)
 Number     Number       Type             X           Y           Z
 ---------------------------------------------------------------------
      1          6           0       -0.863500   -0.529702    0.000000
      2          6           0        0.000000    0.464485    0.000000
      3          6           0       -0.339866    1.884735    0.000000
      4          1           0       -1.391010    2.098362    0.000000
      5          6           0        0.554466    2.863627    0.000000
      6          1           0        1.607432    2.667677    0.000000
      7          1           0        0.249172    3.890905    0.000000
      8         17           0       -0.395286   -2.248836    0.000000
      9          1           0       -1.916113   -0.368692    0.000000
     10          9           0        1.340420    0.204789    0.000000
 ---------------------------------------------------------------------
 Rotational constants (GHZ):      9.8630090      1.3987855      1.2250476
 Standard basis: 6-31G (6D, 7F)
 There are    53 symmetry adapted basis functions of A'  symmetry.
 There are    13 symmetry adapted basis functions of A"  symmetry.
 Integral buffers will be    131072 words long.
 Raffenetti 1 integral format.
 Two-electron integral symmetry is turned on.
    66 basis functions,   172 primitive gaussians,    66 cartesian basis functions
    27 alpha electrons       27 beta electrons
       nuclear repulsion energy       260.5718038693 Hartrees.
 NAtoms=   10 NActive=   10 NUniq=   10 SFac= 7.50D-01 NAtFMM=   80 NAOKFM=F Big=F
 One-electron integrals computed using PRISM.
 NBasis=    66 RedAO= T  NBF=    53    13
 NBsUse=    66 1.00D-06 NBFU=    53    13
 Initial guess read from the read-write file.
 B after Tr=     0.000000    0.000000    0.000000
         Rot=    1.000000    0.000000    0.000000    0.000000 Ang=   0.00 deg.
 Initial guess orbital symmetries:
       Occupied  (A') (A') (A') (A') (A') (A') (A') (A') (A') (A")
                 (A') (A') (A') (A') (A') (A') (A') (A") (A') (A')
                 (A') (A') (A') (A") (A') (A") (A")
       Virtual   (A") (A') (A') (A") (A') (A') (A') (A') (A') (A')
                 (A') (A') (A") (A') (A') (A') (A") (A") (A') (A')
                 (A") (A') (A") (A') (A') (A') (A') (A') (A') (A')
                 (A') (A') (A') (A') (A") (A') (A') (A') (A')
 Harris functional with IExCor=  205 diagonalized for initial guess.
 ExpMin= 1.43D-01 ExpMax= 2.52D+04 ExpMxC= 3.78D+03 IAcc=1 IRadAn=         1 AccDes= 0.00D+00
 HarFok:  IExCor=  205 AccDes= 0.00D+00 IRadAn=         1 IDoV= 1
 ScaDFX=  1.000000  1.000000  1.000000  1.000000
 FoFCou: FMM=F IPFlag=           0 FMFlag=      100000 FMFlg1=           0
         NFxFlg=           0 DoJE=T BraDBF=F KetDBF=T FulRan=T
         Omega=  0.000000  0.000000  1.000000  0.000000  0.000000 ICntrl=     500 IOpCl=  0
         NMat0=    1 NMatS0=    1 NMatT0=    0 NMatD0=    1 NMtDS0=    0 NMtDT0=    0
         I1Cent=           4 NGrid=           0.
 Petite list used in FoFCou.
 Requested convergence on RMS density matrix=1.00D-08 within 128 cycles.
 Requested convergence on MAX density matrix=1.00D-06.
 Requested convergence on             energy=1.00D-06.
 No special actions if energy rises.
 Keep R1 ints in memory in canonical form, NReq=3278450.
 SCF Done:  E(RHF) =  -712.560933628     A.U. after   12 cycles
             Convg  =    0.3505D-08             -V/T =  1.9996
 Calling FoFJK, ICntrl=      2127 FMM=F ISym2X=1 I1Cent= 0 IOpClX= 0 NMat=1 NMatS=1 NMatT=0.
 ***** Axes restored to original set *****
 -------------------------------------------------------------------
 Center     Atomic                   Forces (Hartrees/Bohr)
 Number     Number              X              Y              Z
 -------------------------------------------------------------------
      1        6           0.000545036    0.000253928    0.000000000
      2        6           0.003459231   -0.002312407    0.000000000
      3        6          -0.000829689   -0.000186878    0.000000000
      4        1           0.000782741   -0.000241387    0.000000000
      5        6          -0.001577310   -0.001108913    0.000000000
      6        1          -0.000085303    0.000495728    0.000000000
      7        1          -0.000122310   -0.000239504    0.000000000
      8       17           0.000215771    0.000352108    0.000000000
      9        1          -0.000174728   -0.000408801    0.000000000
     10        9          -0.002213440    0.003396128    0.000000000
 -------------------------------------------------------------------
 Cartesian Forces:  Max     0.003459231 RMS     0.001153450

 GradGradGradGradGradGradGradGradGradGradGradGradGradGradGradGradGradGrad
 Berny optimization.
 Using GEDIIS/GDIIS optimizer.
 Internal  Forces:  Max     0.004035045 RMS     0.000971680
 Search for a local minimum.
 Step number   3 out of a maximum of   43
 All quantities printed in internal units (Hartrees-Bohrs-Radians)
 Mixed Optimization -- En-DIIS/RFO-DIIS
 Update second derivatives using D2CorX and points    1    2    3
 DE= -6.22D-04 DEPred=-6.37D-04 R= 9.76D-01
 SS=  1.41D+00  RLast= 7.40D-02 DXNew= 8.4853D-01 2.2202D-01
 Trust test= 9.76D-01 RLast= 7.40D-02 DXMaxT set to 5.05D-01
 Use linear search instead of GDIIS.
     Eigenvalues ---    0.00237   0.01520   0.01527   0.02681   0.02681
     Eigenvalues ---    0.02681   0.02681   0.13915   0.16000   0.16052
     Eigenvalues ---    0.16275   0.21936   0.22318   0.23767   0.25469
     Eigenvalues ---    0.29535   0.34132   0.37145   0.37230   0.37261
     Eigenvalues ---    0.37358   0.50425   0.54111   0.618061000.00000
     Eigenvalues --- 1000.000001000.000001000.000001000.000001000.00000
     Eigenvalues --- 1000.000001000.000001000.00000
 RFO step:  Lambda=-8.50205746D-05 EMin= 2.36824121D-03
 Quartic linear search produced a step of -0.01238.
 Iteration  1 RMS(Cart)=  0.00700266 RMS(Int)=  0.00002270
 Iteration  2 RMS(Cart)=  0.00002623 RMS(Int)=  0.00000000
 Iteration  3 RMS(Cart)=  0.00000000 RMS(Int)=  0.00000000
 ClnCor:  largest displacement from symmetrization is 1.26D-12 for atom     8.
 Variable       Old X    -DE/DX   Delta X   Delta X   Delta X     New X
                                 (Linear)    (Quad)   (Total)
    R1        2.48845  -0.00048  -0.00005  -0.00072  -0.00077   2.48767
    R2        3.36703  -0.00022  -0.00006  -0.00020  -0.00026   3.36676
    R3        2.01229   0.00029  -0.00001   0.00087   0.00086   2.01314
    R4        2.75966  -0.00190  -0.00016  -0.00582  -0.00598   2.75368
    R5        2.58013   0.00404  -0.00024   0.00912   0.00888   2.58901
    R6        2.02698   0.00058  -0.00005   0.00196   0.00190   2.02888
    R7        2.50562  -0.00165  -0.00009  -0.00255  -0.00264   2.50299
    R8        2.02398   0.00048   0.00001   0.00121   0.00122   2.02520
    R9        2.02519  -0.00012  -0.00001  -0.00025  -0.00026   2.02492
    A1        2.16052  -0.00100  -0.00012  -0.00356  -0.00367   2.15685
    A2        2.13418   0.00084  -0.00027   0.00637   0.00610   2.14027
    A3        1.98849   0.00017   0.00039  -0.00281  -0.00242   1.98606
    A4        2.19154   0.00024  -0.00035   0.00373   0.00338   2.19493
    A5        2.09459  -0.00062   0.00026  -0.00434  -0.00409   2.09050
    A6        1.99705   0.00038   0.00010   0.00061   0.00071   1.99776
    A7        2.00618   0.00143   0.00016   0.00614   0.00630   2.01248
    A8        2.16642  -0.00169  -0.00038  -0.00475  -0.00513   2.16129
    A9        2.11058   0.00026   0.00022  -0.00139  -0.00117   2.10941
   A10        2.12710   0.00036  -0.00013   0.00327   0.00313   2.13023
   A11        2.11243  -0.00042  -0.00010  -0.00186  -0.00197   2.11046
   A12        2.04366   0.00006   0.00023  -0.00140  -0.00117   2.04249
    D1        3.14159   0.00000   0.00000   0.00000   0.00000   3.14159
    D2        0.00000   0.00000   0.00000   0.00000   0.00000   0.00000
    D3        0.00000   0.00000   0.00000   0.00000   0.00000   0.00000
    D4        3.14159   0.00000   0.00000   0.00000   0.00000   3.14159
    D5        0.00000   0.00000   0.00000   0.00000   0.00000   0.00000
    D6        3.14159   0.00000   0.00000   0.00000   0.00000   3.14159
    D7        3.14159   0.00000   0.00000   0.00000   0.00000   3.14159
    D8        0.00000   0.00000   0.00000   0.00000   0.00000   0.00000
    D9        0.00000   0.00000   0.00000   0.00000   0.00000   0.00000
   D10        3.14159   0.00000   0.00000   0.00000   0.00000   3.14159
   D11        3.14159   0.00000   0.00000   0.00000   0.00000   3.14159
   D12        0.00000   0.00000   0.00000   0.00000   0.00000   0.00000
         Item               Value     Threshold  Converged?
 Maximum Force            0.004035     0.000450     NO 
 RMS     Force            0.000972     0.000300     NO 
 Maximum Displacement     0.021151     0.001800     NO 
 RMS     Displacement     0.007003     0.001200     NO 
 Predicted change in Energy=-4.264231D-05
 GradGradGradGradGradGradGradGradGradGradGradGradGradGradGradGradGradGrad

                          Input orientation:                          
 ---------------------------------------------------------------------
 Center     Atomic      Atomic             Coordinates (Angstroms)
 Number     Number       Type             X           Y           Z
 ---------------------------------------------------------------------
      1          6           0       -2.085848   -1.689413    0.000000
      2          6           0       -1.377024   -0.580119    0.000000
      3          6           0        0.077915   -0.499234    0.000000
      4          1           0        0.590027   -1.442866    0.000000
      5          6           0        0.753161    0.640240    0.000000
      6          1           0        0.261697    1.592596    0.000000
      7          1           0        1.824693    0.645289    0.000000
      8         17           0       -3.867191   -1.720517    0.000000
      9          1           0       -1.639114   -2.656527    0.000000
     10          9           0       -2.012716    0.633520    0.000000
 ---------------------------------------------------------------------
                    Distance matrix (angstroms):
                    1          2          3          4          5
     1  C    0.000000
     2  C    1.316421   0.000000
     3  C    2.469492   1.457185   0.000000
     4  H    2.687208   2.147934   1.073638   0.000000
     5  C    3.672500   2.454988   1.324523   2.089484   0.000000
     6  H    4.035164   2.721415   2.099888   3.053167   1.071690
     7  H    4.554467   3.428209   2.088342   2.425860   1.071544
     8  Cl   1.781615   2.738876   4.129817   4.465857   5.188529
     9  H    1.065308   2.092883   2.757190   2.538117   4.073286
    10  F    2.324083   1.370045   2.377786   3.329511   2.765885
                    6          7          8          9         10
     6  H    0.000000
     7  H    1.827662   0.000000
     8  Cl   5.293811   6.163975   0.000000
     9  H    4.654904   4.785389   2.416701   0.000000
    10  F    2.468356   3.837427   2.996760   3.311191   0.000000
 Stoichiometry    C4H4ClF
 Framework group  CS[SG(C4H4ClF)]
 Deg. of freedom    17
 Full point group                 CS      NOp   2
 Largest Abelian subgroup         CS      NOp   2
 Largest concise Abelian subgroup C1      NOp   1
                         Standard orientation:                         
 ---------------------------------------------------------------------
 Center     Atomic      Atomic             Coordinates (Angstroms)
 Number     Number       Type             X           Y           Z
 ---------------------------------------------------------------------
      1          6           0       -0.874720   -0.517103    0.000000
      2          6           0        0.000000    0.466679    0.000000
      3          6           0       -0.317835    1.888779    0.000000
      4          1           0       -1.365171    2.124969    0.000000
      5          6           0        0.595061    2.848457    0.000000
      6          1           0        1.645178    2.634509    0.000000
      7          1           0        0.308516    3.880978    0.000000
      8         17           0       -0.420215   -2.239769    0.000000
      9          1           0       -1.926875   -0.350213    0.000000
     10          9           0        1.340775    0.184995    0.000000
 ---------------------------------------------------------------------
 Rotational constants (GHZ):      9.8447194      1.4039574      1.2287282
 Standard basis: 6-31G (6D, 7F)
 There are    53 symmetry adapted basis functions of A'  symmetry.
 There are    13 symmetry adapted basis functions of A"  symmetry.
 Integral buffers will be    131072 words long.
 Raffenetti 1 integral format.
 Two-electron integral symmetry is turned on.
    66 basis functions,   172 primitive gaussians,    66 cartesian basis functions
    27 alpha electrons       27 beta electrons
       nuclear repulsion energy       260.7333504643 Hartrees.
 NAtoms=   10 NActive=   10 NUniq=   10 SFac= 7.50D-01 NAtFMM=   80 NAOKFM=F Big=F
 One-electron integrals computed using PRISM.
 NBasis=    66 RedAO= T  NBF=    53    13
 NBsUse=    66 1.00D-06 NBFU=    53    13
 Initial guess read from the read-write file.
 B after Tr=     0.000000    0.000000    0.000000
         Rot=    1.000000    0.000000    0.000000    0.000000 Ang=   0.00 deg.
 Initial guess orbital symmetries:
       Occupied  (A') (A') (A') (A') (A') (A') (A') (A') (A') (A")
                 (A') (A') (A') (A') (A') (A') (A') (A") (A') (A')
                 (A') (A') (A') (A") (A') (A") (A")
       Virtual   (A") (A') (A') (A") (A') (A') (A') (A') (A') (A')
                 (A') (A') (A") (A') (A') (A') (A") (A") (A') (A')
                 (A") (A') (A") (A') (A') (A') (A') (A') (A') (A')
                 (A') (A') (A') (A') (A") (A') (A') (A') (A')
 Harris functional with IExCor=  205 diagonalized for initial guess.
 ExpMin= 1.43D-01 ExpMax= 2.52D+04 ExpMxC= 3.78D+03 IAcc=1 IRadAn=         1 AccDes= 0.00D+00
 HarFok:  IExCor=  205 AccDes= 0.00D+00 IRadAn=         1 IDoV= 1
 ScaDFX=  1.000000  1.000000  1.000000  1.000000
 FoFCou: FMM=F IPFlag=           0 FMFlag=      100000 FMFlg1=           0
         NFxFlg=           0 DoJE=T BraDBF=F KetDBF=T FulRan=T
         Omega=  0.000000  0.000000  1.000000  0.000000  0.000000 ICntrl=     500 IOpCl=  0
         NMat0=    1 NMatS0=    1 NMatT0=    0 NMatD0=    1 NMtDS0=    0 NMtDT0=    0
         I1Cent=           4 NGrid=           0.
 Petite list used in FoFCou.
 Requested convergence on RMS density matrix=1.00D-08 within 128 cycles.
 Requested convergence on MAX density matrix=1.00D-06.
 Requested convergence on             energy=1.00D-06.
 No special actions if energy rises.
 Keep R1 ints in memory in canonical form, NReq=3278450.
 SCF Done:  E(RHF) =  -712.560975740     A.U. after   11 cycles
             Convg  =    0.6083D-08             -V/T =  1.9996
 Calling FoFJK, ICntrl=      2127 FMM=F ISym2X=1 I1Cent= 0 IOpClX= 0 NMat=1 NMatS=1 NMatT=0.
 ***** Axes restored to original set *****
 -------------------------------------------------------------------
 Center     Atomic                   Forces (Hartrees/Bohr)
 Number     Number              X              Y              Z
 -------------------------------------------------------------------
      1        6          -0.000267888   -0.000298437    0.000000000
      2        6           0.000095691   -0.000325940    0.000000000
      3        6           0.000099884   -0.000845563    0.000000000
      4        1          -0.000096874    0.000260678    0.000000000
      5        6           0.000279704    0.000863553    0.000000000
      6        1          -0.000038636   -0.000170071    0.000000000
      7        1           0.000076316   -0.000058599    0.000000000
      8       17          -0.000175792    0.000114300    0.000000000
      9        1           0.000184127    0.000208060    0.000000000
     10        9          -0.000156531    0.000252019    0.000000000
 -------------------------------------------------------------------
 Cartesian Forces:  Max     0.000863553 RMS     0.000267789

 GradGradGradGradGradGradGradGradGradGradGradGradGradGradGradGradGradGrad
 Berny optimization.
 Using GEDIIS/GDIIS optimizer.
 Internal  Forces:  Max     0.000707988 RMS     0.000190534
 Search for a local minimum.
 Step number   4 out of a maximum of   43
 All quantities printed in internal units (Hartrees-Bohrs-Radians)
 Mixed Optimization -- En-DIIS/RFO-DIIS
 Swaping is turned off.
 Update second derivatives using D2CorX and points    1    2    3    4
 DE= -4.21D-05 DEPred=-4.26D-05 R= 9.88D-01
 SS=  1.41D+00  RLast= 1.72D-02 DXNew= 8.4853D-01 5.1600D-02
 Trust test= 9.88D-01 RLast= 1.72D-02 DXMaxT set to 5.05D-01
     Eigenvalues ---    0.00237   0.01517   0.01522   0.02681   0.02681
     Eigenvalues ---    0.02681   0.02681   0.15169   0.15998   0.16062
     Eigenvalues ---    0.16076   0.21065   0.22215   0.22464   0.25524
     Eigenvalues ---    0.29569   0.34272   0.37214   0.37228   0.37324
     Eigenvalues ---    0.37978   0.47647   0.54915   0.645251000.00000
     Eigenvalues --- 1000.000001000.000001000.000001000.000001000.00000
     Eigenvalues --- 1000.000001000.000001000.00000
 En-DIIS/RFO-DIIS IScMMF=        0 using points:     4    3
 RFO step:  Lambda=-1.96962363D-06.
 DIIS coeffs:      0.98887      0.01113
 Iteration  1 RMS(Cart)=  0.00152688 RMS(Int)=  0.00000110
 Iteration  2 RMS(Cart)=  0.00000144 RMS(Int)=  0.00000000
 Iteration  3 RMS(Cart)=  0.00000000 RMS(Int)=  0.00000000
 ClnCor:  largest displacement from symmetrization is 7.89D-13 for atom    10.
 Variable       Old X    -DE/DX   Delta X   Delta X   Delta X     New X
                                  (DIIS)     (GDIIS)  (Total)
    R1        2.48767   0.00012   0.00001   0.00012   0.00013   2.48781
    R2        3.36676   0.00017   0.00000   0.00058   0.00058   3.36734
    R3        2.01314  -0.00011  -0.00001  -0.00027  -0.00028   2.01287
    R4        2.75368   0.00032   0.00007   0.00065   0.00072   2.75440
    R5        2.58901   0.00030  -0.00010   0.00089   0.00079   2.58980
    R6        2.02888  -0.00028  -0.00002  -0.00065  -0.00067   2.02821
    R7        2.50299   0.00071   0.00003   0.00110   0.00113   2.50412
    R8        2.02520  -0.00013  -0.00001  -0.00029  -0.00030   2.02490
    R9        2.02492   0.00008   0.00000   0.00019   0.00019   2.02512
    A1        2.15685  -0.00009   0.00004  -0.00057  -0.00053   2.15632
    A2        2.14027  -0.00021  -0.00007  -0.00113  -0.00120   2.13907
    A3        1.98606   0.00030   0.00003   0.00171   0.00173   1.98780
    A4        2.19493   0.00029  -0.00004   0.00125   0.00121   2.19614
    A5        2.09050  -0.00017   0.00005  -0.00078  -0.00074   2.08976
    A6        1.99776  -0.00012  -0.00001  -0.00047  -0.00047   1.99728
    A7        2.01248   0.00013  -0.00007   0.00093   0.00086   2.01334
    A8        2.16129  -0.00018   0.00006  -0.00115  -0.00109   2.16020
    A9        2.10941   0.00005   0.00001   0.00022   0.00023   2.10964
   A10        2.13023  -0.00011  -0.00003  -0.00056  -0.00059   2.12964
   A11        2.11046   0.00000   0.00002  -0.00014  -0.00011   2.11035
   A12        2.04249   0.00012   0.00001   0.00069   0.00070   2.04320
    D1        3.14159   0.00000   0.00000   0.00000   0.00000   3.14159
    D2        0.00000   0.00000   0.00000   0.00000   0.00000   0.00000
    D3        0.00000   0.00000   0.00000   0.00000   0.00000   0.00000
    D4        3.14159   0.00000   0.00000   0.00000   0.00000   3.14159
    D5        0.00000   0.00000   0.00000   0.00000   0.00000   0.00000
    D6        3.14159   0.00000   0.00000   0.00000   0.00000   3.14159
    D7        3.14159   0.00000   0.00000   0.00000   0.00000   3.14159
    D8        0.00000   0.00000   0.00000   0.00000   0.00000   0.00000
    D9        0.00000   0.00000   0.00000   0.00000   0.00000   0.00000
   D10        3.14159   0.00000   0.00000   0.00000   0.00000   3.14159
   D11        3.14159   0.00000   0.00000   0.00000   0.00000   3.14159
   D12        0.00000   0.00000   0.00000   0.00000   0.00000   0.00000
         Item               Value     Threshold  Converged?
 Maximum Force            0.000708     0.000450     NO 
 RMS     Force            0.000191     0.000300     YES
 Maximum Displacement     0.004414     0.001800     NO 
 RMS     Displacement     0.001527     0.001200     NO 
 Predicted change in Energy=-1.740979D-06
 GradGradGradGradGradGradGradGradGradGradGradGradGradGradGradGradGradGrad

                          Input orientation:                          
 ---------------------------------------------------------------------
 Center     Atomic      Atomic             Coordinates (Angstroms)
 Number     Number       Type             X           Y           Z
 ---------------------------------------------------------------------
      1          6           0       -2.086462   -1.689911    0.000000
      2          6           0       -1.376424   -0.581313    0.000000
      3          6           0        0.078882   -0.500188    0.000000
      4          1           0        0.591774   -1.442990    0.000000
      5          6           0        0.753022    0.640637    0.000000
      6          1           0        0.259890    1.591950    0.000000
      7          1           0        1.824648    0.646892    0.000000
      8         17           0       -3.868159   -1.718181    0.000000
      9          1           0       -1.639654   -2.656831    0.000000
     10          9           0       -2.011917    0.632903    0.000000
 ---------------------------------------------------------------------
                    Distance matrix (angstroms):
                    1          2          3          4          5
     1  C    0.000000
     2  C    1.316490   0.000000
     3  C    2.470659   1.457565   0.000000
     4  H    2.689595   2.148555   1.073282   0.000000
     5  C    3.673435   2.455137   1.325122   2.089858   0.000000
     6  H    4.034350   2.720403   2.099954   3.053034   1.071530
     7  H    4.556033   3.428607   2.088898   2.426435   1.071645
     8  Cl   1.781921   2.738835   4.130695   4.468415   5.188385
     9  H    1.065163   2.092143   2.757620   2.540212   4.074088
    10  F    2.324010   1.370464   2.378095   3.329946   2.764949
                    6          7          8          9         10
     6  H    0.000000
     7  H    1.828006   0.000000
     8  Cl   5.291291   6.164546   0.000000
     9  H    4.654074   4.787063   2.418119   0.000000
    10  F    2.465943   3.836590   2.995536   3.310729   0.000000
 Stoichiometry    C4H4ClF
 Framework group  CS[SG(C4H4ClF)]
 Deg. of freedom    17
 Full point group                 CS      NOp   2
 Largest Abelian subgroup         CS      NOp   2
 Largest concise Abelian subgroup C1      NOp   1
                         Standard orientation:                         
 ---------------------------------------------------------------------
 Center     Atomic      Atomic             Coordinates (Angstroms)
 Number     Number       Type             X           Y           Z
 ---------------------------------------------------------------------
      1          6           0       -0.877332   -0.514629    0.000000
      2          6           0        0.000000    0.466918    0.000000
      3          6           0       -0.312477    1.890594    0.000000
      4          1           0       -1.358350    2.131603    0.000000
      5          6           0        0.605536    2.846209    0.000000
      6          1           0        1.654302    2.626519    0.000000
      7          1           0        0.323921    3.880190    0.000000
      8         17           0       -0.426332   -2.238531    0.000000
      9          1           0       -1.928699   -0.343751    0.000000
     10          9           0        1.340234    0.180658    0.000000
 ---------------------------------------------------------------------
 Rotational constants (GHZ):      9.8471145      1.4039102      1.2287294
 Standard basis: 6-31G (6D, 7F)
 There are    53 symmetry adapted basis functions of A'  symmetry.
 There are    13 symmetry adapted basis functions of A"  symmetry.
 Integral buffers will be    131072 words long.
 Raffenetti 1 integral format.
 Two-electron integral symmetry is turned on.
    66 basis functions,   172 primitive gaussians,    66 cartesian basis functions
    27 alpha electrons       27 beta electrons
       nuclear repulsion energy       260.7158586951 Hartrees.
 NAtoms=   10 NActive=   10 NUniq=   10 SFac= 7.50D-01 NAtFMM=   80 NAOKFM=F Big=F
 One-electron integrals computed using PRISM.
 NBasis=    66 RedAO= T  NBF=    53    13
 NBsUse=    66 1.00D-06 NBFU=    53    13
 Initial guess read from the read-write file.
 B after Tr=     0.000000    0.000000    0.000000
         Rot=    1.000000    0.000000    0.000000    0.000000 Ang=   0.00 deg.
 Initial guess orbital symmetries:
       Occupied  (A') (A') (A') (A') (A') (A') (A') (A') (A') (A")
                 (A') (A') (A') (A') (A') (A') (A') (A") (A') (A')
                 (A') (A') (A') (A") (A') (A") (A")
       Virtual   (A") (A') (A') (A") (A') (A') (A') (A') (A') (A')
                 (A') (A') (A") (A') (A') (A') (A") (A") (A') (A')
                 (A") (A') (A") (A') (A') (A') (A') (A') (A') (A')
                 (A') (A') (A') (A') (A") (A') (A') (A') (A')
 Requested convergence on RMS density matrix=1.00D-08 within 128 cycles.
 Requested convergence on MAX density matrix=1.00D-06.
 Requested convergence on             energy=1.00D-06.
 No special actions if energy rises.
 Keep R1 ints in memory in canonical form, NReq=3278450.
 SCF Done:  E(RHF) =  -712.560977603     A.U. after   10 cycles
             Convg  =    0.2993D-08             -V/T =  1.9996
 Calling FoFJK, ICntrl=      2127 FMM=F ISym2X=1 I1Cent= 0 IOpClX= 0 NMat=1 NMatS=1 NMatT=0.
 ***** Axes restored to original set *****
 -------------------------------------------------------------------
 Center     Atomic                   Forces (Hartrees/Bohr)
 Number     Number              X              Y              Z
 -------------------------------------------------------------------
      1        6          -0.000138725   -0.000021074    0.000000000
      2        6           0.000038279   -0.000060649    0.000000000
      3        6           0.000055705    0.000069805    0.000000000
      4        1          -0.000013610    0.000023968    0.000000000
      5        6           0.000002053    0.000030102    0.000000000
      6        1          -0.000026094   -0.000050237    0.000000000
      7        1          -0.000009645   -0.000035680    0.000000000
      8       17           0.000040504    0.000008452    0.000000000
      9        1           0.000040897   -0.000005192    0.000000000
     10        9           0.000010636    0.000040504    0.000000000
 -------------------------------------------------------------------
 Cartesian Forces:  Max     0.000138725 RMS     0.000038390

 GradGradGradGradGradGradGradGradGradGradGradGradGradGradGradGradGradGrad
 Berny optimization.
 Using GEDIIS/GDIIS optimizer.
 Internal  Forces:  Max     0.000066077 RMS     0.000028640
 Search for a local minimum.
 Step number   5 out of a maximum of   43
 All quantities printed in internal units (Hartrees-Bohrs-Radians)
 Mixed Optimization -- En-DIIS/RFO-DIIS
 Swaping is turned off.
 Update second derivatives using D2CorX and points    1    2    3    4    5
 DE= -1.86D-06 DEPred=-1.74D-06 R= 1.07D+00
 SS=  1.41D+00  RLast= 3.64D-03 DXNew= 8.4853D-01 1.0915D-02
 Trust test= 1.07D+00 RLast= 3.64D-03 DXMaxT set to 5.05D-01
     Eigenvalues ---    0.00237   0.01517   0.01522   0.02681   0.02681
     Eigenvalues ---    0.02681   0.02681   0.14300   0.15827   0.16041
     Eigenvalues ---    0.16180   0.19550   0.22111   0.22864   0.25838
     Eigenvalues ---    0.30017   0.34287   0.37118   0.37234   0.37357
     Eigenvalues ---    0.37810   0.47944   0.55799   0.671951000.00000
     Eigenvalues --- 1000.000001000.000001000.000001000.000001000.00000
     Eigenvalues --- 1000.000001000.000001000.00000
 En-DIIS/RFO-DIIS IScMMF=        0 using points:     5    4    3
 RFO step:  Lambda=-5.49832927D-08.
 DIIS coeffs:      1.07649     -0.07436     -0.00212
 Iteration  1 RMS(Cart)=  0.00028800 RMS(Int)=  0.00000004
 Iteration  2 RMS(Cart)=  0.00000005 RMS(Int)=  0.00000000
 ClnCor:  largest displacement from symmetrization is 5.15D-14 for atom     1.
 Variable       Old X    -DE/DX   Delta X   Delta X   Delta X     New X
                                  (DIIS)     (GDIIS)  (Total)
    R1        2.48781   0.00005   0.00001   0.00009   0.00010   2.48791
    R2        3.36734  -0.00004   0.00004  -0.00018  -0.00013   3.36721
    R3        2.01287   0.00002  -0.00002   0.00008   0.00006   2.01293
    R4        2.75440   0.00001   0.00004   0.00002   0.00006   2.75446
    R5        2.58980   0.00003   0.00008   0.00004   0.00011   2.58992
    R6        2.02821  -0.00003  -0.00005  -0.00004  -0.00009   2.02812
    R7        2.50412  -0.00007   0.00008  -0.00018  -0.00010   2.50402
    R8        2.02490  -0.00003  -0.00002  -0.00008  -0.00010   2.02480
    R9        2.02512  -0.00001   0.00001  -0.00004  -0.00002   2.02509
    A1        2.15632   0.00001  -0.00005   0.00005   0.00000   2.15632
    A2        2.13907  -0.00004  -0.00008  -0.00018  -0.00026   2.13881
    A3        1.98780   0.00003   0.00013   0.00013   0.00026   1.98805
    A4        2.19614   0.00006   0.00010   0.00020   0.00030   2.19644
    A5        2.08976   0.00001  -0.00007   0.00005  -0.00001   2.08975
    A6        1.99728  -0.00007  -0.00003  -0.00026  -0.00029   1.99699
    A7        2.01334   0.00001   0.00008   0.00000   0.00008   2.01342
    A8        2.16020  -0.00002  -0.00009  -0.00001  -0.00011   2.16009
    A9        2.10964   0.00001   0.00002   0.00002   0.00003   2.10967
   A10        2.12964  -0.00004  -0.00004  -0.00022  -0.00026   2.12938
   A11        2.11035  -0.00002  -0.00001  -0.00011  -0.00012   2.11023
   A12        2.04320   0.00006   0.00005   0.00033   0.00038   2.04358
    D1        3.14159   0.00000   0.00000   0.00000   0.00000   3.14159
    D2        0.00000   0.00000   0.00000   0.00000   0.00000   0.00000
    D3        0.00000   0.00000   0.00000   0.00000   0.00000   0.00000
    D4        3.14159   0.00000   0.00000   0.00000   0.00000   3.14159
    D5        0.00000   0.00000   0.00000   0.00000   0.00000   0.00000
    D6        3.14159   0.00000   0.00000   0.00000   0.00000   3.14159
    D7        3.14159   0.00000   0.00000   0.00000   0.00000   3.14159
    D8        0.00000   0.00000   0.00000   0.00000   0.00000   0.00000
    D9        0.00000   0.00000   0.00000   0.00000   0.00000   0.00000
   D10        3.14159   0.00000   0.00000   0.00000   0.00000   3.14159
   D11        3.14159   0.00000   0.00000   0.00000   0.00000   3.14159
   D12        0.00000   0.00000   0.00000   0.00000   0.00000   0.00000
         Item               Value     Threshold  Converged?
 Maximum Force            0.000066     0.000450     YES
 RMS     Force            0.000029     0.000300     YES
 Maximum Displacement     0.000917     0.001800     YES
 RMS     Displacement     0.000288     0.001200     YES
 Predicted change in Energy=-5.944716D-08
 Optimization completed.
    -- Stationary point found.
                           ----------------------------
                           !   Optimized Parameters   !
                           ! (Angstroms and Degrees)  !
 --------------------------                            --------------------------
 ! Name  Definition              Value          Derivative Info.                !
 --------------------------------------------------------------------------------
 ! R1    R(1,2)                  1.3165         -DE/DX =    0.0                 !
 ! R2    R(1,8)                  1.7819         -DE/DX =    0.0                 !
 ! R3    R(1,9)                  1.0652         -DE/DX =    0.0                 !
 ! R4    R(2,3)                  1.4576         -DE/DX =    0.0                 !
 ! R5    R(2,10)                 1.3705         -DE/DX =    0.0                 !
 ! R6    R(3,4)                  1.0733         -DE/DX =    0.0                 !
 ! R7    R(3,5)                  1.3251         -DE/DX =   -0.0001              !
 ! R8    R(5,6)                  1.0715         -DE/DX =    0.0                 !
 ! R9    R(5,7)                  1.0716         -DE/DX =    0.0                 !
 ! A1    A(2,1,8)              123.5479         -DE/DX =    0.0                 !
 ! A2    A(2,1,9)              122.5597         -DE/DX =    0.0                 !
 ! A3    A(8,1,9)              113.8924         -DE/DX =    0.0                 !
 ! A4    A(1,2,3)              125.8295         -DE/DX =    0.0001              !
 ! A5    A(1,2,10)             119.7346         -DE/DX =    0.0                 !
 ! A6    A(3,2,10)             114.4359         -DE/DX =   -0.0001              !
 ! A7    A(2,3,4)              115.356          -DE/DX =    0.0                 !
 ! A8    A(2,3,5)              123.7704         -DE/DX =    0.0                 !
 ! A9    A(4,3,5)              120.8736         -DE/DX =    0.0                 !
 ! A10   A(3,5,6)              122.0193         -DE/DX =    0.0                 !
 ! A11   A(3,5,7)              120.9142         -DE/DX =    0.0                 !
 ! A12   A(6,5,7)              117.0665         -DE/DX =    0.0001              !
 ! D1    D(8,1,2,3)            180.0            -DE/DX =    0.0                 !
 ! D2    D(8,1,2,10)             0.0            -DE/DX =    0.0                 !
 ! D3    D(9,1,2,3)              0.0            -DE/DX =    0.0                 !
 ! D4    D(9,1,2,10)           180.0            -DE/DX =    0.0                 !
 ! D5    D(1,2,3,4)              0.0            -DE/DX =    0.0                 !
 ! D6    D(1,2,3,5)            180.0            -DE/DX =    0.0                 !
 ! D7    D(10,2,3,4)           180.0            -DE/DX =    0.0                 !
 ! D8    D(10,2,3,5)             0.0            -DE/DX =    0.0                 !
 ! D9    D(2,3,5,6)              0.0            -DE/DX =    0.0                 !
 ! D10   D(2,3,5,7)            180.0            -DE/DX =    0.0                 !
 ! D11   D(4,3,5,6)            180.0            -DE/DX =    0.0                 !
 ! D12   D(4,3,5,7)              0.0            -DE/DX =    0.0                 !
 --------------------------------------------------------------------------------
 GradGradGradGradGradGradGradGradGradGradGradGradGradGradGradGradGradGrad

                          Input orientation:                          
 ---------------------------------------------------------------------
 Center     Atomic      Atomic             Coordinates (Angstroms)
 Number     Number       Type             X           Y           Z
 ---------------------------------------------------------------------
      1          6           0       -2.086462   -1.689911    0.000000
      2          6           0       -1.376424   -0.581313    0.000000
      3          6           0        0.078882   -0.500188    0.000000
      4          1           0        0.591774   -1.442990    0.000000
      5          6           0        0.753022    0.640637    0.000000
      6          1           0        0.259890    1.591950    0.000000
      7          1           0        1.824648    0.646892    0.000000
      8         17           0       -3.868159   -1.718181    0.000000
      9          1           0       -1.639654   -2.656831    0.000000
     10          9           0       -2.011917    0.632903    0.000000
 ---------------------------------------------------------------------
                    Distance matrix (angstroms):
                    1          2          3          4          5
     1  C    0.000000
     2  C    1.316490   0.000000
     3  C    2.470659   1.457565   0.000000
     4  H    2.689595   2.148555   1.073282   0.000000
     5  C    3.673435   2.455137   1.325122   2.089858   0.000000
     6  H    4.034350   2.720403   2.099954   3.053034   1.071530
     7  H    4.556033   3.428607   2.088898   2.426435   1.071645
     8  Cl   1.781921   2.738835   4.130695   4.468415   5.188385
     9  H    1.065163   2.092143   2.757620   2.540212   4.074088
    10  F    2.324010   1.370464   2.378095   3.329946   2.764949
                    6          7          8          9         10
     6  H    0.000000
     7  H    1.828006   0.000000
     8  Cl   5.291291   6.164546   0.000000
     9  H    4.654074   4.787063   2.418119   0.000000
    10  F    2.465943   3.836590   2.995536   3.310729   0.000000
 Stoichiometry    C4H4ClF
 Framework group  CS[SG(C4H4ClF)]
 Deg. of freedom    17
 Full point group                 CS      NOp   2
 Largest Abelian subgroup         CS      NOp   2
 Largest concise Abelian subgroup C1      NOp   1
                         Standard orientation:                         
 ---------------------------------------------------------------------
 Center     Atomic      Atomic             Coordinates (Angstroms)
 Number     Number       Type             X           Y           Z
 ---------------------------------------------------------------------
      1          6           0       -0.877332   -0.514629    0.000000
      2          6           0        0.000000    0.466918    0.000000
      3          6           0       -0.312477    1.890594    0.000000
      4          1           0       -1.358350    2.131603    0.000000
      5          6           0        0.605536    2.846209    0.000000
      6          1           0        1.654302    2.626519    0.000000
      7          1           0        0.323921    3.880190    0.000000
      8         17           0       -0.426332   -2.238531    0.000000
      9          1           0       -1.928699   -0.343751    0.000000
     10          9           0        1.340234    0.180658    0.000000
 ---------------------------------------------------------------------
 Rotational constants (GHZ):      9.8471145      1.4039102      1.2287294

 **********************************************************************

            Population analysis using the SCF density.

 **********************************************************************

 Orbital symmetries:
       Occupied  (A') (A') (A') (A') (A') (A') (A') (A') (A') (A")
                 (A') (A') (A') (A') (A') (A') (A') (A") (A') (A')
                 (A') (A') (A') (A") (A') (A") (A")
       Virtual   (A") (A') (A') (A") (A') (A') (A') (A') (A') (A')
                 (A') (A') (A") (A') (A') (A') (A") (A") (A') (A')
                 (A") (A') (A") (A') (A') (A') (A') (A') (A') (A')
                 (A') (A') (A') (A') (A") (A') (A') (A') (A')
 The electronic state is 1-A'.
 Alpha  occ. eigenvalues -- -104.82972 -26.31692 -11.36676 -11.31841 -11.27369
 Alpha  occ. eigenvalues --  -11.26068 -10.56945  -8.03801  -8.03376  -8.03370
 Alpha  occ. eigenvalues --   -1.63063  -1.16923  -1.10895  -1.02419  -0.85516
 Alpha  occ. eigenvalues --   -0.80075  -0.74131  -0.69516  -0.68224  -0.64044
 Alpha  occ. eigenvalues --   -0.61204  -0.56596  -0.53469  -0.51530  -0.45972
 Alpha  occ. eigenvalues --   -0.45032  -0.34663
 Alpha virt. eigenvalues --    0.09462   0.17974   0.22362   0.24034   0.27511
 Alpha virt. eigenvalues --    0.29019   0.33132   0.39329   0.46377   0.48317
 Alpha virt. eigenvalues --    0.55063   0.60477   0.64151   0.64899   0.66767
 Alpha virt. eigenvalues --    0.68683   0.72787   0.79569   0.79907   0.81719
 Alpha virt. eigenvalues --    0.88634   0.89173   0.90234   0.94509   1.05928
 Alpha virt. eigenvalues --    1.08505   1.13192   1.18545   1.22150   1.23688
 Alpha virt. eigenvalues --    1.25485   1.31502   1.46527   1.48290   1.59413
 Alpha virt. eigenvalues --    1.59925   1.69752   1.85594   2.58196
          Condensed to atoms (all electrons):
              1          2          3          4          5          6
     1  C    5.774226   0.336576  -0.072752   0.000782   0.004805   0.000460
     2  C    0.336576   4.756119   0.332849  -0.030218  -0.054833  -0.002185
     3  C   -0.072752   0.332849   5.127176   0.380501   0.570645  -0.047275
     4  H    0.000782  -0.030218   0.380501   0.459432  -0.027641   0.002079
     5  C    0.004805  -0.054833   0.570645  -0.027641   5.052158   0.400836
     6  H    0.000460  -0.002185  -0.047275   0.002079   0.400836   0.451370
     7  H   -0.000106   0.003163  -0.037796  -0.002172   0.388647  -0.020740
     8  Cl   0.188948  -0.092922   0.002201  -0.000054  -0.000049  -0.000002
[...]
 Red. masses --     1.0952                 1.1163                 1.0955
 Frc consts  --     7.3416                 7.8143                 7.8001
 IR Inten    --     6.6675                 5.8373                19.9625
  Atom  AN      X      Y      Z        X      Y      Z        X      Y      Z
     1   6     0.00   0.00   0.00     0.00   0.00   0.00    -0.09   0.01   0.00
     2   6     0.00   0.00   0.00     0.00   0.00   0.00     0.00   0.01   0.00
     3   6    -0.08   0.01   0.00     0.01   0.00   0.00     0.00   0.00   0.00
     4   1     0.89  -0.21   0.00    -0.12   0.02   0.00     0.03  -0.01   0.00
     5   6     0.03   0.02   0.00     0.07  -0.07   0.00     0.00   0.00   0.00
     6   1    -0.34   0.07   0.00    -0.71   0.14   0.00     0.00   0.00   0.00
     7   1     0.06  -0.21   0.00    -0.17   0.65   0.00     0.00   0.00   0.00
     8  17     0.00   0.00   0.00     0.00   0.00   0.00     0.00   0.00   0.00
     9   1    -0.02   0.00   0.00     0.01   0.00   0.00     0.98  -0.15   0.00
    10   9     0.00   0.00   0.00     0.00   0.00   0.00     0.00   0.00   0.00

 -------------------
 - Thermochemistry -
 -------------------
 Temperature   298.150 Kelvin.  Pressure   1.00000 Atm.
 Atom     1 has atomic number  6 and mass  12.00000
 Atom     2 has atomic number  6 and mass  12.00000
 Atom     3 has atomic number  6 and mass  12.00000
 Atom     4 has atomic number  1 and mass   1.00783
 Atom     5 has atomic number  6 and mass  12.00000
 Atom     6 has atomic number  1 and mass   1.00783
 Atom     7 has atomic number  1 and mass   1.00783
 Atom     8 has atomic number 17 and mass  34.96885
 Atom     9 has atomic number  1 and mass   1.00783
 Atom    10 has atomic number  9 and mass  18.99840
 Molecular mass:   105.99856 amu.
 Principal axes and moments of inertia in atomic units:
                           1         2         3
     Eigenvalues --   183.276151285.510391468.78654
           X            0.20038   0.97972   0.00000
           Y            0.97972  -0.20038   0.00000
           Z            0.00000   0.00000   1.00000
 This molecule is an asymmetric top.
 Rotational symmetry number  1.
 Rotational temperatures (Kelvin)      0.47259     0.06738     0.05897
 Rotational constants (GHZ):           9.84711     1.40391     1.22873
 Zero-point vibrational energy     196202.8 (Joules/Mol)
                                   46.89359 (Kcal/Mol)
 Warning -- explicit consideration of   6 degrees of freedom as
           vibrations may cause significant error
 Vibrational temperatures:    163.40   259.66   357.16   432.88   625.74
          (Kelvin)            811.88   968.75  1167.82  1226.75  1341.10
                             1407.92  1630.81  1660.73  1678.08  1894.47
                             2090.08  2132.76  2307.73  2634.35  2767.52
                             4821.81  4853.12  4959.33  5001.62
 
 Zero-point correction=                           0.074730 (Hartree/Particle)
 Thermal correction to Energy=                    0.080668
 Thermal correction to Enthalpy=                  0.081612
 Thermal correction to Gibbs Free Energy=         0.044352
 Sum of electronic and zero-point Energies=           -712.486248
 Sum of electronic and thermal Energies=              -712.480309
 Sum of electronic and thermal Enthalpies=            -712.479365
 Sum of electronic and thermal Free Energies=         -712.516626
 
                     E (Thermal)             CV                S
                      KCal/Mol        Cal/Mol-Kelvin    Cal/Mol-Kelvin
 Total                   50.620             19.762             78.422
 Electronic               0.000              0.000              0.000
 Translational            0.889              2.981             39.892
 Rotational               0.889              2.981             27.339
 Vibrational             48.843             13.800             11.191
 Vibration     1          0.607              1.938              3.207
 Vibration     2          0.629              1.866              2.324
 Vibration     3          0.662              1.766              1.743
 Vibration     4          0.693              1.672              1.412
 Vibration     5          0.796              1.394              0.843
 Vibration     6          0.920              1.109              0.515
                       Q            Log10(Q)             Ln(Q)
 Total Bot       0.397862D-20        -20.400268        -46.973353
 Total V=0       0.939575D+14         13.972931         32.173864
 Vib (Bot)       0.440464D-33        -33.356090        -76.805235
 Vib (Bot)    1  0.180204D+01          0.255764          0.588919
 Vib (Bot)    2  0.111273D+01          0.046390          0.106818
 Vib (Bot)    3  0.786875D+00         -0.104094         -0.239686
 Vib (Bot)    4  0.631786D+00         -0.199430         -0.459204
 Vib (Bot)    5  0.399095D+00         -0.398924         -0.918556
 Vib (Bot)    6  0.274283D+00         -0.561801         -1.293594
 Vib (V=0)       0.104018D+02          1.017110          2.341982
 Vib (V=0)    1  0.237012D+01          0.374770          0.862940
 Vib (V=0)    2  0.171991D+01          0.235505          0.542270
 Vib (V=0)    3  0.143229D+01          0.156032          0.359277
 Vib (V=0)    4  0.130570D+01          0.115844          0.266740
 Vib (V=0)    5  0.113975D+01          0.056809          0.130807
 Vib (V=0)    6  0.107029D+01          0.029502          0.067930
 Electronic      0.100000D+01          0.000000          0.000000
 Translational   0.428948D+08          7.632405         17.574262
 Rotational      0.210580D+06          5.323417         12.257620
 ***** Axes restored to original set *****
 -------------------------------------------------------------------
 Center     Atomic                   Forces (Hartrees/Bohr)
 Number     Number              X              Y              Z
 -------------------------------------------------------------------
      1        6          -0.000138720   -0.000021073    0.000000000
      2        6           0.000038282   -0.000060646    0.000000000
      3        6           0.000055704    0.000069803    0.000000000
      4        1          -0.000013612    0.000023973    0.000000000
      5        6           0.000002049    0.000030093    0.000000000
      6        1          -0.000026095   -0.000050234    0.000000000
      7        1          -0.000009642   -0.000035678    0.000000000
      8       17           0.000040501    0.000008452    0.000000000
      9        1           0.000040897   -0.000005191    0.000000000
     10        9           0.000010636    0.000040503    0.000000000
 -------------------------------------------------------------------
 Cartesian Forces:  Max     0.000138720 RMS     0.000038389

 GradGradGradGradGradGradGradGradGradGradGradGradGradGradGradGradGradGrad
 Berny optimization.
 Internal  Forces:  Max     0.000066076 RMS     0.000028640
 Search for a local minimum.
 Step number   1 out of a maximum of    2
 All quantities printed in internal units (Hartrees-Bohrs-Radians)
 Second derivative matrix not updated -- analytic derivatives used.
     Eigenvalues ---    0.00704   0.02763   0.03149   0.03806   0.04309
     Eigenvalues ---    0.05409   0.05737   0.12290   0.12561   0.13525
     Eigenvalues ---    0.16087   0.18544   0.19732   0.21355   0.27063
     Eigenvalues ---    0.28388   0.40231   0.40600   0.40807   0.42353
     Eigenvalues ---    0.42702   0.46429   0.73720   0.763351000.00000
     Eigenvalues --- 1000.000001000.000001000.000001000.000001000.00000
     Eigenvalues --- 1000.000001000.000001000.00000
 Angle between quadratic step and forces=  30.04 degrees.
 Linear search not attempted -- first point.
 Iteration  1 RMS(Cart)=  0.00024932 RMS(Int)=  0.00000004
 Iteration  2 RMS(Cart)=  0.00000004 RMS(Int)=  0.00000000
 ClnCor:  largest displacement from symmetrization is 3.03D-15 for atom     7.
 Variable       Old X    -DE/DX   Delta X   Delta X   Delta X     New X
                                 (Linear)    (Quad)   (Total)
    R1        2.48781   0.00005   0.00000   0.00005   0.00005   2.48786
    R2        3.36734  -0.00004   0.00000  -0.00025  -0.00025   3.36709
    R3        2.01287   0.00002   0.00000   0.00007   0.00007   2.01293
    R4        2.75440   0.00001   0.00000   0.00004   0.00004   2.75444
    R5        2.58980   0.00003   0.00000   0.00014   0.00014   2.58994
    R6        2.02821  -0.00003   0.00000  -0.00006  -0.00006   2.02815
    R7        2.50412  -0.00007   0.00000  -0.00007  -0.00007   2.50405
    R8        2.02490  -0.00003   0.00000  -0.00009  -0.00009   2.02480
    R9        2.02512  -0.00001   0.00000  -0.00004  -0.00004   2.02508
    A1        2.15632   0.00001   0.00000   0.00007   0.00007   2.15638
    A2        2.13907  -0.00004   0.00000  -0.00035  -0.00035   2.13871
    A3        1.98780   0.00003   0.00000   0.00029   0.00029   1.98809
    A4        2.19614   0.00006   0.00000   0.00031   0.00031   2.19645
    A5        2.08976   0.00001   0.00000  -0.00003  -0.00003   2.08973
    A6        1.99728  -0.00007   0.00000  -0.00028  -0.00028   1.99701
    A7        2.01334   0.00001   0.00000   0.00003   0.00003   2.01337
    A8        2.16020  -0.00002   0.00000  -0.00008  -0.00008   2.16012
    A9        2.10964   0.00001   0.00000   0.00005   0.00005   2.10969
   A10        2.12964  -0.00004   0.00000  -0.00027  -0.00027   2.12937
   A11        2.11035  -0.00002   0.00000  -0.00016  -0.00016   2.11019
   A12        2.04320   0.00006   0.00000   0.00043   0.00043   2.04363
    D1        3.14159   0.00000   0.00000   0.00000   0.00000   3.14159
    D2        0.00000   0.00000   0.00000   0.00000   0.00000   0.00000
    D3        0.00000   0.00000   0.00000   0.00000   0.00000   0.00000
    D4        3.14159   0.00000   0.00000   0.00000   0.00000   3.14159
    D5        0.00000   0.00000   0.00000   0.00000   0.00000   0.00000
    D6        3.14159   0.00000   0.00000   0.00000   0.00000   3.14159
    D7        3.14159   0.00000   0.00000   0.00000   0.00000   3.14159
    D8        0.00000   0.00000   0.00000   0.00000   0.00000   0.00000
    D9        0.00000   0.00000   0.00000   0.00000   0.00000   0.00000
   D10        3.14159   0.00000   0.00000   0.00000   0.00000   3.14159
   D11        3.14159   0.00000   0.00000   0.00000   0.00000   3.14159
   D12        0.00000   0.00000   0.00000   0.00000   0.00000   0.00000
         Item               Value     Threshold  Converged?
 Maximum Force            0.000066     0.000450     YES
 RMS     Force            0.000029     0.000300     YES
 Maximum Displacement     0.000858     0.001800     YES
 RMS     Displacement     0.000249     0.001200     YES
 Predicted change in Energy=-6.343562D-08
 Optimization completed.
    -- Stationary point found.
                           ----------------------------
                           !   Optimized Parameters   !
                           ! (Angstroms and Degrees)  !
 --------------------------                            --------------------------
 ! Name  Definition              Value          Derivative Info.                !
 --------------------------------------------------------------------------------
 ! R1    R(1,2)                  1.3165         -DE/DX =    0.0                 !
 ! R2    R(1,8)                  1.7819         -DE/DX =    0.0                 !
 ! R3    R(1,9)                  1.0652         -DE/DX =    0.0                 !
 ! R4    R(2,3)                  1.4576         -DE/DX =    0.0                 !
 ! R5    R(2,10)                 1.3705         -DE/DX =    0.0                 !
 ! R6    R(3,4)                  1.0733         -DE/DX =    0.0                 !
 ! R7    R(3,5)                  1.3251         -DE/DX =   -0.0001              !
 ! R8    R(5,6)                  1.0715         -DE/DX =    0.0                 !
 ! R9    R(5,7)                  1.0716         -DE/DX =    0.0                 !
 ! A1    A(2,1,8)              123.5479         -DE/DX =    0.0                 !
 ! A2    A(2,1,9)              122.5597         -DE/DX =    0.0                 !
 ! A3    A(8,1,9)              113.8924         -DE/DX =    0.0                 !
 ! A4    A(1,2,3)              125.8295         -DE/DX =    0.0001              !
 ! A5    A(1,2,10)             119.7346         -DE/DX =    0.0                 !
 ! A6    A(3,2,10)             114.4359         -DE/DX =   -0.0001              !
 ! A7    A(2,3,4)              115.356          -DE/DX =    0.0                 !
 ! A8    A(2,3,5)              123.7704         -DE/DX =    0.0                 !
 ! A9    A(4,3,5)              120.8736         -DE/DX =    0.0                 !
 ! A10   A(3,5,6)              122.0193         -DE/DX =    0.0                 !
 ! A11   A(3,5,7)              120.9142         -DE/DX =    0.0                 !
 ! A12   A(6,5,7)              117.0665         -DE/DX =    0.0001              !
 ! D1    D(8,1,2,3)            180.0            -DE/DX =    0.0                 !
 ! D2    D(8,1,2,10)             0.0            -DE/DX =    0.0                 !
 ! D3    D(9,1,2,3)              0.0            -DE/DX =    0.0                 !
 ! D4    D(9,1,2,10)           180.0            -DE/DX =    0.0                 !
 ! D5    D(1,2,3,4)              0.0            -DE/DX =    0.0                 !
 ! D6    D(1,2,3,5)            180.0            -DE/DX =    0.0                 !
 ! D7    D(10,2,3,4)           180.0            -DE/DX =    0.0                 !
 ! D8    D(10,2,3,5)             0.0            -DE/DX =    0.0                 !
 ! D9    D(2,3,5,6)              0.0            -DE/DX =    0.0                 !
 ! D10   D(2,3,5,7)            180.0            -DE/DX =    0.0                 !
 ! D11   D(4,3,5,6)            180.0            -DE/DX =    0.0                 !
 ! D12   D(4,3,5,7)              0.0            -DE/DX =    0.0                 !
 --------------------------------------------------------------------------------
 GradGradGradGradGradGradGradGradGradGradGradGradGradGradGradGradGradGrad

 1\1\GINC-MALLOS69\Freq\RHF\6-31G\C4H4Cl1F1\MARLIN\26-Oct-2024\0\\#N Ge
 om=AllCheck Guess=TCheck SCRF=Check GenChk RHF/6-31G Freq\\Title Card 
 Required\\0,1\C,-2.0864624502,-1.6899110745,0.\C,-1.3764235289,-0.5813
 128347,0.\C,0.0788818642,-0.5001882918,0.\H,0.591774229,-1.4429904158,
 0.\C,0.7530216727,0.6406374566,0.\H,0.2598896335,1.5919504902,0.\H,1.8
 246482438,0.6468921627,0.\Cl,-3.8681588969,-1.7181810324,0.\H,-1.63965
 35113,-2.656830577,0.\F,-2.011916596,0.6329033168,0.\\Version=EM64L-G0
 9RevA.01\State=1-A'\HF=-712.5609776\RMSD=7.981e-10\RMSF=3.839e-05\Zero
 Point=0.0747297\Thermal=0.0806682\Dipole=1.4155753,-0.4100691,0.\Dipol
 eDeriv=0.7722546,0.1313137,0.,-0.1772513,-0.1326228,0.,0.,0.,-0.340033
 3,0.3939407,-0.1705874,0.,0.2451552,0.9882524,0.,0.,0.,0.3732862,0.095
 3387,0.0303212,0.,-0.2774051,-0.0904904,0.,0.,0.,-0.214811,0.0146116,0
 .0063628,0.,0.0696811,-0.0364215,0.,0.,0.,0.1811761,0.0004185,-0.10261
 07,0.,0.0314975,0.075609,0.,0.,0.,-0.2943626,0.0541531,0.0516618,0.,0.
 0485045,0.0195058,0.,0.,0.,0.1961475,-0.0902198,-0.0152269,0.,-0.00073
 38,0.0648066,0.,0.,0.,0.1650499,-0.7491166,-0.241945,0.,0.0248465,-0.1
 447995,0.,0.,0.,-0.0612851,-0.0956767,0.0191959,0.,0.0386467,0.0891549
 ,0.,0.,0.,0.2289288,-0.3957041,0.2915146,0.,-0.0029413,-0.8329945,0.,0
 .,0.,-0.2340965\Polar=78.1723266,26.9845786,61.8750719,0.,0.,16.727691
 3\HyperPolar=191.7305676,68.4109178,77.5058089,16.7342499,0.,0.,0.,-2.
 0190326,1.3466014,0.\PG=CS [SG(C4H4Cl1F1)]\NImag=0\\0.59620727,0.13184
 295,0.96042341,0.,0.,0.12307349,-0.26976411,-0.24027761,0.,0.77409565,
 -0.27125963,-0.50478071,0.,0.18079636,0.92923022,0.,0.,-0.07752234,0.,
 0.,0.17947986,-0.02714631,-0.01566325,0.,-0.29072397,0.00135996,0.,0.7
 4337553,-0.03704336,0.00034337,0.,-0.01414895,-0.11367410,0.,0.1099948
 9,0.98171229,0.,0.,0.01376780,0.,0.,-0.08310496,0.,0.,0.16682936,0.000
 24225,-0.00061654,0.,-0.01294564,0.03363082,0.,-0.14265527,0.12993256,
 0.,0.14914072,-0.00059395,-0.00019611,0.,-0.00467450,0.00278870,0.,0.1
 2967403,-0.30472133,0.,-0.13758678,0.32501084,0.,0.,-0.00111137,0.,0.,
 0.00360482,0.,0.,-0.05147968,0.,0.,0.03251963,-0.00156802,0.00626082,0
 .,-0.03433844,-0.04774140,0.,-0.26593671,-0.21887132,0.,0.01383577,0.0
 1889360,0.,0.81521629,0.00560643,0.00497852,0.,-0.01590181,0.00091827,
 0.,-0.21542949,-0.52437302,0.,-0.02239848,-0.02444348,0.,0.11338452,0.
 93222063,0.,0.,0.00085756,0.,0.,0.00899732,0.,0.,-0.07392365,0.,0.,0.0
 0983210,0.,0.,0.15781969,-0.00002594,0.00026687,0.,0.00115457,-0.00131
 049,0.,0.01513016,-0.02073615,0.,-0.00175502,-0.00348573,0.,-0.1407511
 7,0.13584926,0.,0.13818648,-0.00020120,0.00012512,0.,0.00219825,-0.002
 04266,0.,0.01891805,-0.02315064,0.,-0.00335608,-0.00267110,0.,0.124921
 33,-0.31723583,0.,-0.13977534,0.33661409,0.,0.,0.00037304,0.,0.,-0.009
 10289,0.,0.,0.01041841,0.,0.,0.01323314,0.,0.,-0.05285761,0.,0.,0.0317
 1224,-0.00045832,0.00006163,0.,0.00101702,-0.00141581,0.,-0.01232332,0
 .00526680,0.,0.00129545,-0.00028982,0.,-0.38615473,-0.00151994,0.,-0.0
 0946163,-0.00332974,0.,0.40625206,-0.00080183,0.00064000,0.,-0.0014365
 1,-0.00655283,0.,-0.03742197,0.00344169,0.,0.00018063,0.00155733,0.,0.
 00784681,-0.07059602,0.,0.02905623,0.00497473,0.,0.00199876,0.06550270
 ,0.,0.,-0.00054720,0.,0.,0.01447957,0.,0.,0.00949969,0.,0.,-0.00975096
 ,0.,0.,-0.05019882,0.,0.,0.00634891,0.,0.,0.03089463,-0.18895661,-0.00
 791123,0.,-0.04402439,0.01536699,0.,0.00409924,-0.00549155,0.,0.000566
 22,0.00049130,0.,-0.00265589,0.00048356,0.,-0.00005550,0.00000197,0.,-
 0.00027328,-0.00050376,0.,0.25121967,0.00315097,-0.04373768,0.,-0.0271
 7534,0.00312080,0.,0.00069512,-0.00293579,0.,-0.00018871,0.00024126,0.
 ,-0.00115194,0.00025008,0.,0.00004431,0.00005984,0.,-0.00012886,-0.000
 20890,0.,0.00891762,0.03398121,0.,0.,-0.02575750,0.,0.,0.00932986,0.,0
 .,0.00766502,0.,0.,-0.00026803,0.,0.,0.00019549,0.,0.,0.00036566,0.,0.
 ,-0.00104340,0.,0.,0.01186178,-0.11389280,0.13685847,0.,0.01320411,-0.
 01750352,0.,0.00001870,-0.00090425,0.,-0.00051451,-0.00047184,0.,-0.00
 001570,0.00031803,0.,0.00009745,0.00007686,0.,-0.00004064,-0.00001725,
 0.,-0.02544103,0.01979059,0.,0.12733712,0.12597102,-0.35523014,0.,0.01
 843285,-0.01534774,0.,0.00105954,0.00031112,0.,-0.00086686,0.00044124,
 0.,-0.00037370,0.00028590,0.,0.00017417,0.00016145,0.,-0.00002644,-0.0
 0001169,0.,-0.00934780,0.00681744,0.,-0.13227751,0.36507278,0.,0.,-0.0
 4381431,0.,0.,0.00559305,0.,0.,-0.00658732,0.,0.,0.00069978,0.,0.,-0.0
 0005563,0.,0.,0.00003588,0.,0.,0.00052732,0.,0.,0.00389901,0.,0.,0.027
 92458,0.00536260,-0.01082211,0.,-0.13767480,0.10807671,0.,-0.02383805,
 0.05200132,0.,-0.00720998,-0.00195630,0.,0.00236859,-0.00039209,0.,-0.
 00251940,0.00054590,0.,0.00014739,0.00109888,0.,0.00552158,-0.00395377
 ,0.,-0.00075271,-0.00274525,0.,0.15859479,0.04332859,-0.06256578,0.,0.
 10218726,-0.29365993,0.,0.00681311,-0.01695359,0.,0.00126944,0.0019926
 6,0.,-0.00316875,-0.00200504,0.,-0.00008312,0.00316500,0.,-0.00061657,
 0.00125299,0.,-0.00200710,0.00241174,0.,-0.00586958,-0.00250036,0.,-0.
 14185328,0.36886232,0.,0.,0.01068084,0.,0.,-0.05175428,0.,0.,0.0069153
 4,0.,0.,0.00272059,0.,0.,-0.00066644,0.,0.,-0.00052677,0.,0.,-0.000209
 73,0.,0.,-0.00624788,0.,0.,0.01177765,0.,0.,0.02731068\\0.00013872,0.0
 0002107,0.,-0.00003828,0.00006065,0.,-0.00005570,-0.00006980,0.,0.0000
 1361,-0.00002397,0.,-0.00000205,-0.00003009,0.,0.00002610,0.00005023,0
 .,0.00000964,0.00003568,0.,-0.00004050,-0.00000845,0.,-0.00004090,0.00
 000519,0.,-0.00001064,-0.00004050,0.\\\@


 THE WHOLE OF SCIENCE IS NOTHING MORE THAN A REFINEMENT OF EVEYDAY THINKING.
                                                              -- A. EINSTEIN
 Job cpu time:  0 days  0 hours  0 minutes 51.2 seconds.
 File lengths (MBytes):  RWF=     11 Int=      0 D2E=      0 Chk=      1 Scr=      1
 Normal termination of Gaussian 09 at Sat Oct 26 20:12:24 2024.
