 Entering Gaussian System, Link 0=g09
 Initial command:
 /u/local/G09/g09/l1.exe /tmp/marlin/23007.mallos00.local/Gau-17509.inp -scrdir=/tmp/marlin/23007.mallos00.local/
 Entering Link 1 = /u/local/G09/g09/l1.exe PID=     17511.
  
 Copyright (c) 1988,1990,1992,1993,1995,1998,2003,2009, Gaussian, Inc.
                  All Rights Reserved.
  
 This is part of the Gaussian(R) 09 program.  It is based on
 the Gaussian(R) 03 system (copyright 2003, Gaussian, Inc.),
 the Gaussian(R) 98 system (copyright 1998, Gaussian, Inc.),
 the Gaussian(R) 94 system (copyright 1995, Gaussian, Inc.),
 the Gaussian 92(TM) system (copyright 1992, Gaussian, Inc.),
 the Gaussian 90(TM) system (copyright 1990, Gaussian, Inc.),
 the Gaussian 88(TM) system (copyright 1988, Gaussian, Inc.),
 the Gaussian 86(TM) system (copyright 1986, Carnegie Mellon
 University), and the Gaussian 82(TM) system (copyright 1983,
 Carnegie Mellon University). Gaussian is a federally registered
 trademark of Gaussian, Inc.
  
 This software contains proprietary and confidential information,
 including trade secrets, belonging to Gaussian, Inc.
  
 This software is provided under written license and may be
 used, copied, transmitted, or stored only in accord with that
 written license.
  
 The following legend is applicable only to US Government
 contracts under FAR:
  
                    RESTRICTED RIGHTS LEGEND
  
 Use, reproduction and disclosure by the US Government is
 subject to restrictions as set forth in subparagraphs (a)
 and (c) of the Commercial Computer Software - Restricted
 Rights clause in FAR 52.227-19.
  
 Gaussian, Inc.
 340 Quinnipiac St., Bldg. 40, Wallingford CT 06492
  
  
 ---------------------------------------------------------------
 Warning -- This program may not be used in any manner that
 competes with the business of Gaussian, Inc. or will provide
 assistance to any competitor of Gaussian, Inc.  The licensee
 of this program is prohibited from giving any competitor of
 Gaussian, Inc. access to this program.  By using this program,
 the user acknowledges that Gaussian, Inc. is engaged in the
 business of creating and licensing software in the field of
 computational chemistry and represents and warrants to the
 licensee that it is not a competitor of Gaussian, Inc. and that
 it will not use this program in any manner prohibited above.
 ---------------------------------------------------------------
  

 Cite this work as:
 Gaussian 09, Revision A.01,
 M. J. Frisch, G. W. Trucks, H. B. Schlegel, G. E. Scuseria, 
 M. A. Robb, J. R. Cheeseman, G. Scalmani, V. Barone, B. Mennucci, 
 G. A. Petersson, H. Nakatsuji, M. Caricato, X. Li, H. P. Hratchian, 
 A. F. Izmaylov, J. Bloino, G. Zheng, J. L. Sonnenberg, M. Hada, 
 M. Ehara, K. Toyota, R. Fukuda, J. Hasegawa, M. Ishida, T. Nakajima, 
 Y. Honda, O. Kitao, H. Nakai, T. Vreven, J. A. Montgomery, Jr., 
 J. E. Peralta, F. Ogliaro, M. Bearpark, J. J. Heyd, E. Brothers, 
 K. N. Kudin, V. N. Staroverov, R. Kobayashi, J. Normand, 
 K. Raghavachari, A. Rendell, J. C. Burant, S. S. Iyengar, J. Tomasi, 
 M. Cossi, N. Rega, J. M. Millam, M. Klene, J. E. Knox, J. B. Cross, 
 V. Bakken, C. Adamo, J. Jaramillo, R. Gomperts, R. E. Stratmann, 
 O. Yazyev, A. J. Austin, R. Cammi, C. Pomelli, J. W. Ochterski, 
 R. L. Martin, K. Morokuma, V. G. Zakrzewski, G. A. Voth, 
 P. Salvador, J. J. Dannenberg, S. Dapprich, A. D. Daniels, 
 O. Farkas, J. B. Foresman, J. V. Ortiz, J. Cioslowski, 
 and D. J. Fox, Gaussian, Inc., Wallingford CT, 2009.
 
 ******************************************
 Gaussian 09:  EM64L-G09RevA.01  8-May-2009
                26-Oct-2024 
 ******************************************
 %mem=206GB
 %nproc=20
 Will use up to   20 processors via shared memory.
 %chk=4-base1.chk
 ---------------------------------------------
 # opt freq=noraman hf/6-31G geom=connectivity
 ---------------------------------------------
 1/18=20,19=15,38=1,57=2/1,3;
 2/9=110,12=2,17=6,18=5,40=1/2;
 3/5=1,6=6,11=9,16=1,25=1,30=1,71=1/1,2,3;
 4//1;
 5/5=2,38=5/2;
 6/7=2,8=2,9=2,10=2,28=1/1;
 7//1,2,3,16;
 1/18=20,19=15/3(2);
 2/9=110/2;
 99//99;
 2/9=110/2;
 3/5=1,6=6,11=9,16=1,25=1,30=1,71=1/1,2,3;
 4/5=5,16=3/1;
 5/5=2,38=5/2;
 7//1,2,3,16;
 1/18=20,19=15/3(-5);
 2/9=110/2;
 6/7=2,8=2,9=2,10=2,19=2,28=1/1;
 99/9=1/99;
 -------------------
 Title Card Required
 -------------------
 Symbolic Z-matrix:
 Charge =  0 Multiplicity = 1
 C                    -2.1124   -1.70543   0. 
 C                    -1.43713  -0.53045   0. 
 C                     0.10287  -0.53045   0. 
 H                     0.63603  -1.45815   0. 
 C                     0.78511   0.6405    0. 
 H                     0.25747   1.57135   0. 
 H                     1.8551    0.63414   0. 
 Cl                   -3.8724   -1.70543   0. 
 F                    -1.43972  -2.8759    0. 
 H                    -1.97029   0.39726   0. 
 

 GradGradGradGradGradGradGradGradGradGradGradGradGradGradGradGradGradGrad
 Berny optimization.
 Initialization pass.
                           ----------------------------
                           !    Initial Parameters    !
                           ! (Angstroms and Degrees)  !
 --------------------------                            --------------------------
 ! Name  Definition              Value          Derivative Info.                !
 --------------------------------------------------------------------------------
 ! R1    R(1,2)                  1.3552         estimate D2E/DX2                !
 ! R2    R(1,8)                  1.76           estimate D2E/DX2                !
 ! R3    R(1,9)                  1.35           estimate D2E/DX2                !
 ! R4    R(2,3)                  1.54           estimate D2E/DX2                !
 ! R5    R(2,10)                 1.07           estimate D2E/DX2                !
 ! R6    R(3,4)                  1.07           estimate D2E/DX2                !
 ! R7    R(3,5)                  1.3552         estimate D2E/DX2                !
 ! R8    R(5,6)                  1.07           estimate D2E/DX2                !
 ! R9    R(5,7)                  1.07           estimate D2E/DX2                !
 ! A1    A(2,1,8)              119.8865         estimate D2E/DX2                !
 ! A2    A(2,1,9)              120.2269         estimate D2E/DX2                !
 ! A3    A(8,1,9)              119.8865         estimate D2E/DX2                !
 ! A4    A(1,2,3)              119.8865         estimate D2E/DX2                !
 ! A5    A(1,2,10)             120.2269         estimate D2E/DX2                !
 ! A6    A(3,2,10)             119.8865         estimate D2E/DX2                !
 ! A7    A(2,3,4)              119.8865         estimate D2E/DX2                !
 ! A8    A(2,3,5)              120.2269         estimate D2E/DX2                !
 ! A9    A(4,3,5)              119.8865         estimate D2E/DX2                !
 ! A10   A(3,5,6)              120.2269         estimate D2E/DX2                !
 ! A11   A(3,5,7)              119.8865         estimate D2E/DX2                !
 ! A12   A(6,5,7)              119.8865         estimate D2E/DX2                !
 ! D1    D(8,1,2,3)            180.0            estimate D2E/DX2                !
 ! D2    D(8,1,2,10)             0.0            estimate D2E/DX2                !
 ! D3    D(9,1,2,3)              0.0            estimate D2E/DX2                !
 ! D4    D(9,1,2,10)           180.0            estimate D2E/DX2                !
 ! D5    D(1,2,3,4)              0.0            estimate D2E/DX2                !
 ! D6    D(1,2,3,5)            180.0            estimate D2E/DX2                !
 ! D7    D(10,2,3,4)           180.0            estimate D2E/DX2                !
 ! D8    D(10,2,3,5)             0.0            estimate D2E/DX2                !
 ! D9    D(2,3,5,6)              0.0            estimate D2E/DX2                !
 ! D10   D(2,3,5,7)            180.0            estimate D2E/DX2                !
 ! D11   D(4,3,5,6)            180.0            estimate D2E/DX2                !
 ! D12   D(4,3,5,7)              0.0            estimate D2E/DX2                !
 --------------------------------------------------------------------------------
 Trust Radius=3.00D-01 FncErr=1.00D-07 GrdErr=1.00D-07
 Number of steps in this run=  43 maximum allowed number of steps= 100.
 GradGradGradGradGradGradGradGradGradGradGradGradGradGradGradGradGradGrad

                          Input orientation:                          
 ---------------------------------------------------------------------
 Center     Atomic      Atomic             Coordinates (Angstroms)
 Number     Number       Type             X           Y           Z
 ---------------------------------------------------------------------
      1          6           0       -2.112403   -1.705426    0.000000
      2          6           0       -1.437129   -0.530449    0.000000
      3          6           0        0.102871   -0.530449    0.000000
      4          1           0        0.636035   -1.458154    0.000000
      5          6           0        0.785114    0.640495    0.000000
      6          1           0        0.257472    1.571352    0.000000
      7          1           0        1.855096    0.634138    0.000000
      8         17           0       -3.872403   -1.705426    0.000000
      9          9           0       -1.439720   -2.875895    0.000000
     10          1           0       -1.970293    0.397256    0.000000
 ---------------------------------------------------------------------
                    Distance matrix (angstroms):
                    1          2          3          4          5
     1  C    0.000000
     2  C    1.355200   0.000000
     3  C    2.507591   1.540000   0.000000
     4  H    2.759539   2.271265   1.070000   0.000000
     5  C    3.728131   2.511867   1.355200   2.103938   0.000000
     6  H    4.043956   2.699859   2.107479   3.053066   1.070000
     7  H    4.605932   3.492135   2.103938   2.421527   1.070000
     8  Cl   1.760000   2.703911   4.145284   4.515214   5.214961
     9  F    1.350000   2.345448   2.807259   2.513712   4.161117
    10  H    2.107479   1.070000   2.271265   3.199295   2.766123
                    6          7          8          9         10
     6  H    0.000000
     7  H    1.852234   0.000000
     8  Cl   5.271920   6.186906   0.000000
     9  F    4.760091   4.814161   2.699619   0.000000
    10  H    2.518221   3.832716   2.835365   3.315875   0.000000
 Stoichiometry    C4H4ClF
 Framework group  CS[SG(C4H4ClF)]
 Deg. of freedom    17
 Full point group                 CS      NOp   2
 Largest Abelian subgroup         CS      NOp   2
 Largest concise Abelian subgroup C1      NOp   1
                         Standard orientation:                         
 ---------------------------------------------------------------------
 Center     Atomic      Atomic             Coordinates (Angstroms)
 Number     Number       Type             X           Y           Z
 ---------------------------------------------------------------------
      1          6           0       -0.474210   -0.372046    0.000000
      2          6           0        0.700767    0.303229    0.000000
      3          6           0        0.700767    1.843229    0.000000
      4          1           0       -0.226938    2.376392    0.000000
      5          6           0        1.871712    2.525472    0.000000
      6          1           0        2.802568    1.997830    0.000000
      7          1           0        1.865355    3.595453    0.000000
      8         17           0       -0.474210   -2.132046    0.000000
      9          9           0       -1.644679    0.300638    0.000000
     10          1           0        1.628472   -0.229935    0.000000
 ---------------------------------------------------------------------
 Rotational constants (GHZ):      6.9145727      1.4080935      1.1698613
 Standard basis: 6-31G (6D, 7F)
 There are    53 symmetry adapted basis functions of A'  symmetry.
 There are    13 symmetry adapted basis functions of A"  symmetry.
 Integral buffers will be    131072 words long.
 Raffenetti 1 integral format.
 Two-electron integral symmetry is turned on.
    66 basis functions,   172 primitive gaussians,    66 cartesian basis functions
    27 alpha electrons       27 beta electrons
       nuclear repulsion energy       256.5579137634 Hartrees.
 NAtoms=   10 NActive=   10 NUniq=   10 SFac= 7.50D-01 NAtFMM=   80 NAOKFM=F Big=F
 One-electron integrals computed using PRISM.
 NBasis=    66 RedAO= T  NBF=    53    13
 NBsUse=    66 1.00D-06 NBFU=    53    13
 Harris functional with IExCor=  205 diagonalized for initial guess.
 ExpMin= 1.43D-01 ExpMax= 2.52D+04 ExpMxC= 3.78D+03 IAcc=1 IRadAn=         1 AccDes= 0.00D+00
 HarFok:  IExCor=  205 AccDes= 0.00D+00 IRadAn=         1 IDoV= 1
 ScaDFX=  1.000000  1.000000  1.000000  1.000000
 FoFCou: FMM=F IPFlag=           0 FMFlag=      100000 FMFlg1=           0
         NFxFlg=           0 DoJE=T BraDBF=F KetDBF=T FulRan=T
         Omega=  0.000000  0.000000  1.000000  0.000000  0.000000 ICntrl=     500 IOpCl=  0
         NMat0=    1 NMatS0=    1 NMatT0=    0 NMatD0=    1 NMtDS0=    0 NMtDT0=    0
         I1Cent=           4 NGrid=           0.
 Petite list used in FoFCou.
 Initial guess orbital symmetries:
       Occupied  (A') (A') (A') (A') (A') (A') (A') (A') (A') (A")
                 (A') (A') (A') (A') (A') (A') (A') (A') (A') (A')
                 (A") (A') (A') (A") (A") (A') (A")
       Virtual   (A") (A") (A') (A') (A') (A') (A') (A') (A') (A')
                 (A') (A') (A') (A") (A') (A') (A") (A') (A") (A')
                 (A') (A") (A') (A") (A') (A') (A') (A') (A') (A')
                 (A') (A') (A') (A') (A") (A') (A') (A') (A')
 The electronic state of the initial guess is 1-A'.
 Requested convergence on RMS density matrix=1.00D-08 within 128 cycles.
 Requested convergence on MAX density matrix=1.00D-06.
 Requested convergence on             energy=1.00D-06.
 No special actions if energy rises.
 Keep R1 ints in memory in canonical form, NReq=3278450.
 SCF Done:  E(RHF) =  -712.542344536     A.U. after   14 cycles
             Convg  =    0.2154D-08             -V/T =  2.0000

 **********************************************************************

            Population analysis using the SCF density.

 **********************************************************************

 Orbital symmetries:
       Occupied  (A') (A') (A') (A') (A') (A') (A') (A') (A') (A")
                 (A') (A') (A') (A') (A') (A') (A') (A") (A') (A')
                 (A') (A') (A') (A") (A') (A") (A")
       Virtual   (A") (A') (A") (A') (A') (A') (A') (A') (A') (A')
                 (A') (A') (A") (A') (A') (A') (A") (A') (A") (A')
                 (A') (A") (A") (A') (A') (A') (A') (A') (A') (A')
                 (A') (A') (A') (A') (A") (A') (A') (A') (A')
 The electronic state is 1-A'.
 Alpha  occ. eigenvalues -- -104.85057 -26.33931 -11.40889 -11.28694 -11.27049
 Alpha  occ. eigenvalues --  -11.24960 -10.59166  -8.06020  -8.05579  -8.05558
 Alpha  occ. eigenvalues --   -1.65534  -1.18050  -1.09168  -1.01025  -0.83550
 Alpha  occ. eigenvalues --   -0.79525  -0.73541  -0.71628  -0.69877  -0.61803
 Alpha  occ. eigenvalues --   -0.61170  -0.56787  -0.52431  -0.52272  -0.48371
 Alpha  occ. eigenvalues --   -0.43959  -0.33543
 Alpha virt. eigenvalues --    0.10301   0.18074   0.21881   0.24328   0.26687
 Alpha virt. eigenvalues --    0.29613   0.31316   0.37684   0.43206   0.49056
 Alpha virt. eigenvalues --    0.52425   0.59080   0.62272   0.63534   0.65662
 Alpha virt. eigenvalues --    0.73593   0.74696   0.77191   0.79528   0.82402
 Alpha virt. eigenvalues --    0.86402   0.87608   0.90567   0.93284   1.02364
 Alpha virt. eigenvalues --    1.12147   1.14376   1.18064   1.20907   1.23929
 Alpha virt. eigenvalues --    1.29626   1.34940   1.36669   1.46940   1.56665
 Alpha virt. eigenvalues --    1.60358   1.67251   1.78194   2.47760
          Condensed to atoms (all electrons):
              1          2          3          4          5          6
     1  C    5.139493   0.463628  -0.052444  -0.000015   0.001955   0.000253
     2  C    0.463628   5.258059   0.342388  -0.031930  -0.056325  -0.002047
     3  C   -0.052444   0.342388   4.979457   0.396048   0.572625  -0.048973
     4  H   -0.000015  -0.031930   0.396048   0.447567  -0.032568   0.002312
     5  C    0.001955  -0.056325   0.572625  -0.032568   5.078315   0.399302
     6  H    0.000253  -0.002047  -0.048973   0.002312   0.399302   0.497147
     7  H   -0.000148   0.002749  -0.037547  -0.001632   0.391294  -0.021085
     8  Cl   0.167035  -0.096189   0.003535   0.000045  -0.000074   0.000000
     9  F    0.162827  -0.071476   0.005472   0.001909   0.000427  -0.000002
    10  H   -0.022278   0.377560  -0.022753   0.001089   0.000522   0.001326
              7          8          9         10
     1  C   -0.000148   0.167035   0.162827  -0.022278
     2  C    0.002749  -0.096189  -0.071476   0.377560
     3  C   -0.037547   0.003535   0.005472  -0.022753
     4  H   -0.001632   0.000045   0.001909   0.001089
     5  C    0.391294  -0.000074   0.000427   0.000522
     6  H   -0.021085   0.000000  -0.000002   0.001326
     7  H    0.486256   0.000001  -0.000002   0.000070
     8  Cl   0.000001  16.819275  -0.031124  -0.001088
     9  F   -0.000002  -0.031124   9.327265   0.001445
    10  H    0.000070  -0.001088   0.001445   0.434930
 Mulliken atomic charges:
              1
     1  C    0.139693
     2  C   -0.186417
     3  C   -0.137810
     4  H    0.217176
     5  C   -0.355472
     6  H    0.171767
     7  H    0.180044
     8  Cl   0.138584
     9  F   -0.396741
    10  H    0.229176
 Sum of Mulliken atomic charges =   0.00000
 Mulliken charges with hydrogens summed into heavy atoms:
              1
     1  C    0.139693
     2  C    0.042760
     3  C    0.079366
     5  C   -0.003661
     8  Cl   0.138584
     9  F   -0.396741
 Sum of Mulliken charges with hydrogens summed into heavy atoms =   0.00000
 Electronic spatial extent (au):  <R**2>=            918.9992
 Charge=              0.0000 electrons
 Dipole moment (field-independent basis, Debye):
    X=              2.1116    Y=              1.0843    Z=              0.0000  Tot=              2.3738
 Quadrupole moment (field-independent basis, Debye-Ang):
   XX=            -41.2693   YY=            -39.8687   ZZ=            -44.3993
   XY=              0.6162   XZ=              0.0000   YZ=              0.0000
 Traceless Quadrupole moment (field-independent basis, Debye-Ang):
   XX=              0.5765   YY=              1.9771   ZZ=             -2.5536
   XY=              0.6162   XZ=              0.0000   YZ=              0.0000
 Octapole moment (field-independent basis, Debye-Ang**2):
  XXX=             -0.5023  YYY=              7.4246  ZZZ=              0.0000  XYY=             -0.5315
  XXY=              0.0767  XXZ=              0.0000  XZZ=             -8.1830  YZZ=             -6.0044
  YYZ=              0.0000  XYZ=              0.0000
 Hexadecapole moment (field-independent basis, Debye-Ang**3):
 XXXX=           -329.7897 YYYY=           -724.3182 ZZZZ=            -45.7279 XXXY=           -146.2949
 XXXZ=              0.0000 YYYX=           -142.4057 YYYZ=              0.0000 ZZZX=              0.0000
 ZZZY=              0.0000 XXYY=           -180.9565 XXZZ=            -69.0655 YYZZ=           -152.7485
 XXYZ=              0.0000 YYXZ=              0.0000 ZZXY=            -58.8563
 N-N= 2.565579137634D+02 E-N=-2.202786300243D+03  KE= 7.125685247598D+02
 Symmetry A'   KE= 6.561860165293D+02
 Symmetry A"   KE= 5.638250823050D+01
 Calling FoFJK, ICntrl=      2127 FMM=F ISym2X=1 I1Cent= 0 IOpClX= 0 NMat=1 NMatS=1 NMatT=0.
 ***** Axes restored to original set *****
 -------------------------------------------------------------------
 Center     Atomic                   Forces (Hartrees/Bohr)
 Number     Number              X              Y              Z
 -------------------------------------------------------------------
      1        6           0.033466949    0.074069815    0.000000000
      2        6           0.030698233   -0.056844670    0.000000000
      3        6          -0.024546760    0.044572585    0.000000000
      4        1          -0.005347436   -0.003544622    0.000000000
      5        6          -0.020722023   -0.038523780    0.000000000
      6        1           0.003477438    0.004535562    0.000000000
      7        1           0.001175925    0.004479721    0.000000000
      8       17          -0.007680204   -0.016140352    0.000000000
      9        9          -0.011755925   -0.011937237    0.000000000
     10        1           0.001233804   -0.000667024    0.000000000
 -------------------------------------------------------------------
 Cartesian Forces:  Max     0.074069815 RMS     0.023079754

 GradGradGradGradGradGradGradGradGradGradGradGradGradGradGradGradGradGrad
 Berny optimization.
 Internal  Forces:  Max     0.046867233 RMS     0.015068316
 Search for a local minimum.
 Step number   1 out of a maximum of   43
 All quantities printed in internal units (Hartrees-Bohrs-Radians)
 Mixed Optimization -- RFO/linear search
 Second derivative matrix not updated -- first step.
     Eigenvalues ---    0.00237   0.01459   0.01463   0.02681   0.02681
     Eigenvalues ---    0.02681   0.02681   0.16000   0.16000   0.16000
     Eigenvalues ---    0.16000   0.22000   0.22000   0.25000   0.25000
     Eigenvalues ---    0.28519   0.29539   0.37230   0.37230   0.37230
     Eigenvalues ---    0.37230   0.53930   0.53930   0.550211000.00000
     Eigenvalues --- 1000.000001000.000001000.000001000.000001000.00000
     Eigenvalues --- 1000.000001000.000001000.00000
 RFO step:  Lambda=-2.07427062D-02 EMin= 2.36824121D-03
 Linear search not attempted -- first point.
 Iteration  1 RMS(Cart)=  0.04784217 RMS(Int)=  0.00136195
 Iteration  2 RMS(Cart)=  0.00176915 RMS(Int)=  0.00000047
 Iteration  3 RMS(Cart)=  0.00000077 RMS(Int)=  0.00000000
 ClnCor:  largest displacement from symmetrization is 2.33D-09 for atom     1.
 Variable       Old X    -DE/DX   Delta X   Delta X   Delta X     New X
                                 (Linear)    (Quad)   (Total)
    R1        2.56096  -0.04687   0.00000  -0.08369  -0.08369   2.47727
    R2        3.32592   0.00768   0.00000   0.02429   0.02429   3.35021
    R3        2.55113   0.00449   0.00000   0.00787   0.00787   2.55900
    R4        2.91018  -0.04596   0.00000  -0.15024  -0.15024   2.75994
    R5        2.02201  -0.00119   0.00000  -0.00304  -0.00304   2.01897
    R6        2.02201   0.00041   0.00000   0.00104   0.00104   2.02305
    R7        2.56096  -0.03359   0.00000  -0.05997  -0.05997   2.50099
    R8        2.02201   0.00223   0.00000   0.00568   0.00568   2.02768
    R9        2.02201   0.00115   0.00000   0.00292   0.00292   2.02493
    A1        2.09241   0.02206   0.00000   0.08149   0.08149   2.17390
    A2        2.09836   0.00956   0.00000   0.03530   0.03530   2.13366
    A3        2.09241  -0.03162   0.00000  -0.11679  -0.11679   1.97563
    A4        2.09241   0.01052   0.00000   0.04369   0.04369   2.13610
    A5        2.09836  -0.00451   0.00000  -0.01772  -0.01772   2.08064
    A6        2.09241  -0.00600   0.00000  -0.02597  -0.02597   2.06645
    A7        2.09241  -0.00998   0.00000  -0.05039  -0.05039   2.04202
    A8        2.09836   0.00702   0.00000   0.02915   0.02915   2.12751
    A9        2.09241   0.00296   0.00000   0.02124   0.02124   2.11365
   A10        2.09836   0.00407   0.00000   0.02251   0.02251   2.12087
   A11        2.09241   0.00250   0.00000   0.01384   0.01384   2.10625
   A12        2.09241  -0.00657   0.00000  -0.03635  -0.03635   2.05606
    D1        3.14159   0.00000   0.00000   0.00000   0.00000   3.14159
    D2        0.00000   0.00000   0.00000   0.00000   0.00000   0.00000
    D3        0.00000   0.00000   0.00000   0.00000   0.00000   0.00000
    D4        3.14159   0.00000   0.00000   0.00000   0.00000   3.14159
    D5        0.00000   0.00000   0.00000   0.00000   0.00000   0.00000
    D6        3.14159   0.00000   0.00000   0.00000   0.00000   3.14159
    D7        3.14159   0.00000   0.00000   0.00000   0.00000   3.14159
    D8        0.00000   0.00000   0.00000   0.00000   0.00000   0.00000
    D9        0.00000   0.00000   0.00000   0.00000   0.00000   0.00000
   D10        3.14159   0.00000   0.00000   0.00000   0.00000   3.14159
   D11        3.14159   0.00000   0.00000   0.00000   0.00000   3.14159
   D12        0.00000   0.00000   0.00000   0.00000   0.00000   0.00000
         Item               Value     Threshold  Converged?
 Maximum Force            0.046867     0.000450     NO 
 RMS     Force            0.015068     0.000300     NO 
 Maximum Displacement     0.115322     0.001800     NO 
 RMS     Displacement     0.048621     0.001200     NO 
 Predicted change in Energy=-1.103675D-02
 GradGradGradGradGradGradGradGradGradGradGradGradGradGradGradGradGradGrad

                          Input orientation:                          
 ---------------------------------------------------------------------
 Center     Atomic      Atomic             Coordinates (Angstroms)
 Number     Number       Type             X           Y           Z
 ---------------------------------------------------------------------
      1          6           0       -2.070812   -1.654045    0.000000
      2          6           0       -1.387088   -0.535554    0.000000
      3          6           0        0.073207   -0.511270    0.000000
      4          1           0        0.575009   -1.456930    0.000000
      5          6           0        0.753747    0.623818    0.000000
      6          1           0        0.257649    1.575251    0.000000
      7          1           0        1.825283    0.618859    0.000000
      8         17           0       -3.841043   -1.750484    0.000000
      9          9           0       -1.470538   -2.867894    0.000000
     10          1           0       -1.910775    0.395691    0.000000
 ---------------------------------------------------------------------
                    Distance matrix (angstroms):
                    1          2          3          4          5
     1  C    0.000000
     2  C    1.310916   0.000000
     3  C    2.429558   1.460497   0.000000
     4  H    2.653153   2.167662   1.070550   0.000000
     5  C    3.628607   2.434608   1.323465   2.088411   0.000000
     6  H    3.981216   2.675941   2.094657   3.048744   1.073004
     7  H    4.510614   3.413502   2.084936   2.423238   1.071547
     8  Cl   1.772856   2.738238   4.105728   4.425798   5.171982
     9  F    1.354163   2.333832   2.817236   2.484970   4.139987
    10  H    2.055974   1.068394   2.181459   3.100214   2.674269
                    6          7          8          9         10
     6  H    0.000000
     7  H    1.836344   0.000000
     8  Cl   5.278237   6.141744   0.000000
     9  F    4.767406   4.797903   2.620667   0.000000
    10  H    2.468486   3.742717   2.886521   3.293143   0.000000
 Stoichiometry    C4H4ClF
 Framework group  CS[SG(C4H4ClF)]
 Deg. of freedom    17
 Full point group                 CS      NOp   2
 Largest Abelian subgroup         CS      NOp   2
 Largest concise Abelian subgroup C1      NOp   1
                         Standard orientation:                         
 ---------------------------------------------------------------------
 Center     Atomic      Atomic             Coordinates (Angstroms)
 Number     Number       Type             X           Y           Z
 ---------------------------------------------------------------------
      1          6           0        0.000000    0.535376    0.000000
      2          6           0        0.175946   -0.763678    0.000000
      3          6           0       -0.941169   -1.704479    0.000000
      4          1           0       -1.927362   -1.287944    0.000000
      5          6           0       -0.752274   -3.014394    0.000000
      6          1           0        0.233140   -3.439008    0.000000
      7          1           0       -1.586372   -3.687071    0.000000
      8         17           0        1.311911    1.727814    0.000000
      9          9           0       -1.231881    1.097718    0.000000
     10          1           0        1.170010   -1.155217    0.000000
 ---------------------------------------------------------------------
 Rotational constants (GHZ):      7.3214056      1.4264303      1.1938352
 Standard basis: 6-31G (6D, 7F)
 There are    53 symmetry adapted basis functions of A'  symmetry.
 There are    13 symmetry adapted basis functions of A"  symmetry.
 Integral buffers will be    131072 words long.
 Raffenetti 1 integral format.
 Two-electron integral symmetry is turned on.
    66 basis functions,   172 primitive gaussians,    66 cartesian basis functions
    27 alpha electrons       27 beta electrons
       nuclear repulsion energy       259.6773087540 Hartrees.
 NAtoms=   10 NActive=   10 NUniq=   10 SFac= 7.50D-01 NAtFMM=   80 NAOKFM=F Big=F
 One-electron integrals computed using PRISM.
 NBasis=    66 RedAO= T  NBF=    53    13
 NBsUse=    66 1.00D-06 NBFU=    53    13
 Initial guess read from the read-write file.
 B after Tr=     0.000000    0.000000    0.000000
         Rot=    1.000000    0.000000    0.000000    0.000000 Ang=   0.00 deg.
 Initial guess orbital symmetries:
       Occupied  (A') (A') (A') (A') (A') (A') (A') (A') (A') (A")
                 (A') (A') (A') (A') (A') (A') (A') (A") (A') (A')
                 (A') (A') (A') (A") (A') (A") (A")
       Virtual   (A") (A') (A") (A') (A') (A') (A') (A') (A') (A')
                 (A') (A') (A") (A') (A') (A') (A") (A') (A") (A')
                 (A') (A") (A") (A') (A') (A') (A') (A') (A') (A')
                 (A') (A') (A') (A') (A") (A') (A') (A') (A')
 Harris functional with IExCor=  205 diagonalized for initial guess.
 ExpMin= 1.43D-01 ExpMax= 2.52D+04 ExpMxC= 3.78D+03 IAcc=1 IRadAn=         1 AccDes= 0.00D+00
 HarFok:  IExCor=  205 AccDes= 0.00D+00 IRadAn=         1 IDoV= 1
 ScaDFX=  1.000000  1.000000  1.000000  1.000000
 FoFCou: FMM=F IPFlag=           0 FMFlag=      100000 FMFlg1=           0
         NFxFlg=           0 DoJE=T BraDBF=F KetDBF=T FulRan=T
         Omega=  0.000000  0.000000  1.000000  0.000000  0.000000 ICntrl=     500 IOpCl=  0
         NMat0=    1 NMatS0=    1 NMatT0=    0 NMatD0=    1 NMtDS0=    0 NMtDT0=    0
         I1Cent=           4 NGrid=           0.
 Petite list used in FoFCou.
 Requested convergence on RMS density matrix=1.00D-08 within 128 cycles.
 Requested convergence on MAX density matrix=1.00D-06.
 Requested convergence on             energy=1.00D-06.
 No special actions if energy rises.
 Keep R1 ints in memory in canonical form, NReq=3278450.
 SCF Done:  E(RHF) =  -712.553528785     A.U. after   15 cycles
             Convg  =    0.2720D-08             -V/T =  1.9995
 Calling FoFJK, ICntrl=      2127 FMM=F ISym2X=1 I1Cent= 0 IOpClX= 0 NMat=1 NMatS=1 NMatT=0.
 ***** Axes restored to original set *****
 -------------------------------------------------------------------
 Center     Atomic                   Forces (Hartrees/Bohr)
 Number     Number              X              Y              Z
 -------------------------------------------------------------------
      1        6          -0.005232040    0.008592721    0.000000000
      2        6           0.005399591   -0.003343520    0.000000000
      3        6          -0.003526692    0.002269235    0.000000000
      4        1           0.001306406   -0.000856529    0.000000000
      5        6           0.004168425   -0.000852509    0.000000000
      6        1           0.001712674    0.001566455    0.000000000
      7        1           0.000316441    0.002700716    0.000000000
      8       17          -0.000851265   -0.004108542    0.000000000
      9        9          -0.001241895   -0.006807021    0.000000000
     10        1          -0.002051644    0.000838994    0.000000000
 -------------------------------------------------------------------
 Cartesian Forces:  Max     0.008592721 RMS     0.002960014

 GradGradGradGradGradGradGradGradGradGradGradGradGradGradGradGradGradGrad
 Berny optimization.
 Using GEDIIS/GDIIS optimizer.
 Internal  Forces:  Max     0.008053083 RMS     0.003147989
 Search for a local minimum.
 Step number   2 out of a maximum of   43
 All quantities printed in internal units (Hartrees-Bohrs-Radians)
 Mixed Optimization -- RFO/linear search
 Update second derivatives using D2CorX and points    1    2
 DE= -1.12D-02 DEPred=-1.10D-02 R= 1.01D+00
 SS=  1.41D+00  RLast= 2.53D-01 DXNew= 5.0454D-01 7.5988D-01
 Trust test= 1.01D+00 RLast= 2.53D-01 DXMaxT set to 5.05D-01
 Use linear search instead of GDIIS.
     Eigenvalues ---    0.00237   0.01469   0.01508   0.02681   0.02681
     Eigenvalues ---    0.02681   0.02681   0.15551   0.16000   0.16000
     Eigenvalues ---    0.16169   0.19900   0.22004   0.23628   0.25000
     Eigenvalues ---    0.29509   0.31100   0.37216   0.37230   0.37230
     Eigenvalues ---    0.37285   0.53881   0.54550   0.611771000.00000
     Eigenvalues --- 1000.000001000.000001000.000001000.000001000.00000
     Eigenvalues --- 1000.000001000.000001000.00000
 RFO step:  Lambda=-1.19291039D-03 EMin= 2.36824121D-03
 Quartic linear search produced a step of  0.03364.
 Iteration  1 RMS(Cart)=  0.02737727 RMS(Int)=  0.00017361
 Iteration  2 RMS(Cart)=  0.00019348 RMS(Int)=  0.00000001
 Iteration  3 RMS(Cart)=  0.00000002 RMS(Int)=  0.00000000
 ClnCor:  largest displacement from symmetrization is 3.10D-11 for atom     7.
 Variable       Old X    -DE/DX   Delta X   Delta X   Delta X     New X
                                 (Linear)    (Quad)   (Total)
    R1        2.47727   0.00580  -0.00282   0.00965   0.00684   2.48411
    R2        3.35021   0.00107   0.00082   0.00408   0.00490   3.35511
    R3        2.55900   0.00555   0.00026   0.01054   0.01080   2.56980
    R4        2.75994   0.00406  -0.00505   0.01258   0.00753   2.76747
    R5        2.01897   0.00174  -0.00010   0.00476   0.00466   2.02363
    R6        2.02305   0.00137   0.00003   0.00380   0.00384   2.02688
    R7        2.50099   0.00612  -0.00202   0.01066   0.00864   2.50963
    R8        2.02768   0.00060   0.00019   0.00174   0.00193   2.02961
    R9        2.02493   0.00030   0.00010   0.00089   0.00098   2.02592
    A1        2.17390   0.00554   0.00274   0.02380   0.02654   2.20044
    A2        2.13366   0.00252   0.00119   0.01080   0.01199   2.14564
    A3        1.97563  -0.00805  -0.00393  -0.03460  -0.03853   1.93710
    A4        2.13610   0.00538   0.00147   0.02564   0.02711   2.16322
    A5        2.08064  -0.00408  -0.00060  -0.02170  -0.02229   2.05834
    A6        2.06645  -0.00130  -0.00087  -0.00394  -0.00482   2.06163
    A7        2.04202  -0.00164  -0.00170  -0.00681  -0.00850   2.03352
    A8        2.12751   0.00481   0.00098   0.02281   0.02379   2.15130
    A9        2.11365  -0.00317   0.00071  -0.01600  -0.01529   2.09836
   A10        2.12087   0.00121   0.00076   0.00792   0.00868   2.12955
   A11        2.10625   0.00213   0.00047   0.01377   0.01424   2.12049
   A12        2.05606  -0.00334  -0.00122  -0.02169  -0.02292   2.03315
    D1        3.14159   0.00000   0.00000   0.00000   0.00000   3.14159
    D2        0.00000   0.00000   0.00000   0.00000   0.00000   0.00000
    D3        0.00000   0.00000   0.00000   0.00000   0.00000   0.00000
    D4        3.14159   0.00000   0.00000   0.00000   0.00000   3.14159
    D5        0.00000   0.00000   0.00000   0.00000   0.00000   0.00000
    D6        3.14159   0.00000   0.00000   0.00000   0.00000   3.14159
    D7        3.14159   0.00000   0.00000   0.00000   0.00000   3.14159
    D8        0.00000   0.00000   0.00000   0.00000   0.00000   0.00000
    D9        0.00000   0.00000   0.00000   0.00000   0.00000   0.00000
   D10        3.14159   0.00000   0.00000   0.00000   0.00000   3.14159
   D11        3.14159   0.00000   0.00000   0.00000   0.00000   3.14159
   D12        0.00000   0.00000   0.00000   0.00000   0.00000   0.00000
         Item               Value     Threshold  Converged?
 Maximum Force            0.008053     0.000450     NO 
 RMS     Force            0.003148     0.000300     NO 
 Maximum Displacement     0.081051     0.001800     NO 
 RMS     Displacement     0.027333     0.001200     NO 
 Predicted change in Energy=-6.234170D-04
 GradGradGradGradGradGradGradGradGradGradGradGradGradGradGradGradGradGrad

                          Input orientation:                          
 ---------------------------------------------------------------------
 Center     Atomic      Atomic             Coordinates (Angstroms)
 Number     Number       Type             X           Y           Z
 ---------------------------------------------------------------------
      1          6           0       -2.086087   -1.656896    0.000000
      2          6           0       -1.386400   -0.544045    0.000000
      3          6           0        0.077370   -0.498449    0.000000
      4          1           0        0.585809   -1.442865    0.000000
      5          6           0        0.770801    0.634176    0.000000
      6          1           0        0.291411    1.595277    0.000000
      7          1           0        1.842869    0.634532    0.000000
      8         17           0       -3.857386   -1.778183    0.000000
      9          9           0       -1.513428   -2.890320    0.000000
     10          1           0       -1.920320    0.384215    0.000000
 ---------------------------------------------------------------------
                    Distance matrix (angstroms):
                    1          2          3          4          5
     1  C    0.000000
     2  C    1.314534   0.000000
     3  C    2.454088   1.464481   0.000000
     4  H    2.680454   2.167368   1.072581   0.000000
     5  C    3.662078   2.457991   1.328038   2.085262   0.000000
     6  H    4.028539   2.718777   2.104638   3.052372   1.074025
     7  H    4.548333   3.437619   2.097768   2.428122   1.072068
     8  Cl   1.775447   2.762040   4.137635   4.455830   5.219156
     9  F    1.359880   2.349711   2.872575   2.549887   4.199973
    10  H    2.047831   1.070858   2.184001   3.101435   2.702705
                    6          7          8          9         10
     6  H    0.000000
     7  H    1.824843   0.000000
     8  Cl   5.347219   6.189838   0.000000
     9  F    4.835083   4.867166   2.594414   0.000000
    10  H    2.521592   3.771505   2.903134   3.299718   0.000000
 Stoichiometry    C4H4ClF
 Framework group  CS[SG(C4H4ClF)]
 Deg. of freedom    17
 Full point group                 CS      NOp   2
 Largest Abelian subgroup         CS      NOp   2
 Largest concise Abelian subgroup C1      NOp   1
                         Standard orientation:                         
 ---------------------------------------------------------------------
 Center     Atomic      Atomic             Coordinates (Angstroms)
 Number     Number       Type             X           Y           Z
 ---------------------------------------------------------------------
      1          6           0        0.000000    0.532525    0.000000
      2          6           0        0.180632   -0.769539    0.000000
      3          6           0       -0.910402   -1.746447    0.000000
      4          1           0       -1.907341   -1.350792    0.000000
      5          6           0       -0.712256   -3.059620    0.000000
      6          1           0        0.273187   -3.486740    0.000000
      7          1           0       -1.532593   -3.749821    0.000000
      8         17           0        1.277705    1.765278    0.000000
      9          9           0       -1.232085    1.108059    0.000000
     10          1           0        1.186677   -1.136429    0.000000
 ---------------------------------------------------------------------
 Rotational constants (GHZ):      7.4076747      1.3981556      1.1761619
 Standard basis: 6-31G (6D, 7F)
 There are    53 symmetry adapted basis functions of A'  symmetry.
 There are    13 symmetry adapted basis functions of A"  symmetry.
 Integral buffers will be    131072 words long.
 Raffenetti 1 integral format.
 Two-electron integral symmetry is turned on.
    66 basis functions,   172 primitive gaussians,    66 cartesian basis functions
    27 alpha electrons       27 beta electrons
       nuclear repulsion energy       258.5480921080 Hartrees.
 NAtoms=   10 NActive=   10 NUniq=   10 SFac= 7.50D-01 NAtFMM=   80 NAOKFM=F Big=F
 One-electron integrals computed using PRISM.
 NBasis=    66 RedAO= T  NBF=    53    13
 NBsUse=    66 1.00D-06 NBFU=    53    13
 Initial guess read from the read-write file.
 B after Tr=     0.000000    0.000000    0.000000
         Rot=    1.000000    0.000000    0.000000    0.000000 Ang=   0.00 deg.
 Initial guess orbital symmetries:
       Occupied  (A') (A') (A') (A') (A') (A') (A') (A') (A') (A")
                 (A') (A') (A') (A') (A') (A') (A') (A") (A') (A')
                 (A') (A') (A') (A") (A') (A") (A")
       Virtual   (A") (A') (A") (A') (A') (A') (A') (A') (A') (A')
                 (A') (A') (A") (A') (A') (A") (A') (A') (A") (A')
                 (A') (A") (A") (A') (A') (A') (A') (A') (A') (A')
                 (A') (A') (A') (A') (A") (A') (A') (A') (A')
 Harris functional with IExCor=  205 diagonalized for initial guess.
 ExpMin= 1.43D-01 ExpMax= 2.52D+04 ExpMxC= 3.78D+03 IAcc=1 IRadAn=         1 AccDes= 0.00D+00
 HarFok:  IExCor=  205 AccDes= 0.00D+00 IRadAn=         1 IDoV= 1
 ScaDFX=  1.000000  1.000000  1.000000  1.000000
 FoFCou: FMM=F IPFlag=           0 FMFlag=      100000 FMFlg1=           0
         NFxFlg=           0 DoJE=T BraDBF=F KetDBF=T FulRan=T
         Omega=  0.000000  0.000000  1.000000  0.000000  0.000000 ICntrl=     500 IOpCl=  0
         NMat0=    1 NMatS0=    1 NMatT0=    0 NMatD0=    1 NMtDS0=    0 NMtDT0=    0
         I1Cent=           4 NGrid=           0.
 Petite list used in FoFCou.
 Requested convergence on RMS density matrix=1.00D-08 within 128 cycles.
 Requested convergence on MAX density matrix=1.00D-06.
 Requested convergence on             energy=1.00D-06.
 No special actions if energy rises.
 Keep R1 ints in memory in canonical form, NReq=3278450.
 SCF Done:  E(RHF) =  -712.554047788     A.U. after   11 cycles
             Convg  =    0.4570D-08             -V/T =  1.9996
 Calling FoFJK, ICntrl=      2127 FMM=F ISym2X=1 I1Cent= 0 IOpClX= 0 NMat=1 NMatS=1 NMatT=0.
 ***** Axes restored to original set *****
 -------------------------------------------------------------------
 Center     Atomic                   Forces (Hartrees/Bohr)
 Number     Number              X              Y              Z
 -------------------------------------------------------------------
      1        6          -0.000889201    0.002679384    0.000000000
      2        6           0.001109901   -0.000441831    0.000000000
      3        6          -0.000212787    0.000042017    0.000000000
      4        1           0.000455044   -0.000349033    0.000000000
      5        6          -0.001789400   -0.001497626    0.000000000
      6        1           0.000078905    0.000348142    0.000000000
      7        1          -0.000189269   -0.000218482    0.000000000
      8       17           0.000380140    0.000450874    0.000000000
      9        9           0.001794142   -0.001298382    0.000000000
     10        1          -0.000737476    0.000284938    0.000000000
 -------------------------------------------------------------------
 Cartesian Forces:  Max     0.002679384 RMS     0.000842738

 GradGradGradGradGradGradGradGradGradGradGradGradGradGradGradGradGradGrad
 Berny optimization.
 Using GEDIIS/GDIIS optimizer.
 Internal  Forces:  Max     0.002234829 RMS     0.000902904
 Search for a local minimum.
 Step number   3 out of a maximum of   43
 All quantities printed in internal units (Hartrees-Bohrs-Radians)
 Mixed Optimization -- En-DIIS/RFO-DIIS
 Update second derivatives using D2CorX and points    1    2    3
 DE= -5.19D-04 DEPred=-6.23D-04 R= 8.33D-01
 SS=  1.41D+00  RLast= 7.50D-02 DXNew= 8.4853D-01 2.2496D-01
 Trust test= 8.33D-01 RLast= 7.50D-02 DXMaxT set to 5.05D-01
 Use linear search instead of GDIIS.
     Eigenvalues ---    0.00237   0.01457   0.01502   0.02681   0.02681
     Eigenvalues ---    0.02681   0.02681   0.14850   0.16000   0.16086
     Eigenvalues ---    0.16156   0.21819   0.22093   0.23402   0.25668
     Eigenvalues ---    0.29565   0.31849   0.37139   0.37230   0.37240
     Eigenvalues ---    0.37257   0.53541   0.54153   0.642511000.00000
     Eigenvalues --- 1000.000001000.000001000.000001000.000001000.00000
     Eigenvalues --- 1000.000001000.000001000.00000
 RFO step:  Lambda=-3.90374364D-05 EMin= 2.36824121D-03
 Quartic linear search produced a step of -0.13097.
 Iteration  1 RMS(Cart)=  0.00536606 RMS(Int)=  0.00000922
 Iteration  2 RMS(Cart)=  0.00001077 RMS(Int)=  0.00000000
 Iteration  3 RMS(Cart)=  0.00000000 RMS(Int)=  0.00000000
 ClnCor:  largest displacement from symmetrization is 5.99D-12 for atom     1.
 Variable       Old X    -DE/DX   Delta X   Delta X   Delta X     New X
                                 (Linear)    (Quad)   (Total)
    R1        2.48411  -0.00223  -0.00090  -0.00197  -0.00287   2.48124
    R2        3.35511  -0.00041  -0.00064  -0.00053  -0.00117   3.35393
    R3        2.56980   0.00193  -0.00141   0.00490   0.00349   2.57329
    R4        2.76747  -0.00171  -0.00099  -0.00308  -0.00407   2.76340
    R5        2.02363   0.00061  -0.00061   0.00227   0.00166   2.02529
    R6        2.02688   0.00052  -0.00050   0.00189   0.00139   2.02827
    R7        2.50963  -0.00216  -0.00113  -0.00168  -0.00281   2.50681
    R8        2.02961   0.00028  -0.00025   0.00095   0.00070   2.03031
    R9        2.02592  -0.00019  -0.00013  -0.00030  -0.00043   2.02549
    A1        2.20044  -0.00002  -0.00348   0.00396   0.00048   2.20093
    A2        2.14564  -0.00138  -0.00157  -0.00302  -0.00459   2.14105
    A3        1.93710   0.00140   0.00505  -0.00094   0.00411   1.94121
    A4        2.16322  -0.00143  -0.00355  -0.00135  -0.00490   2.15831
    A5        2.05834   0.00021   0.00292  -0.00361  -0.00069   2.05765
    A6        2.06163   0.00122   0.00063   0.00496   0.00559   2.06722
    A7        2.03352   0.00078   0.00111   0.00232   0.00343   2.03695
    A8        2.15130  -0.00107  -0.00312  -0.00042  -0.00354   2.14777
    A9        2.09836   0.00030   0.00200  -0.00190   0.00010   2.09847
   A10        2.12955   0.00045  -0.00114   0.00383   0.00270   2.13224
   A11        2.12049  -0.00045  -0.00186  -0.00013  -0.00199   2.11850
   A12        2.03315  -0.00001   0.00300  -0.00370  -0.00070   2.03244
    D1        3.14159   0.00000   0.00000   0.00000   0.00000   3.14159
    D2        0.00000   0.00000   0.00000   0.00000   0.00000   0.00000
    D3        0.00000   0.00000   0.00000   0.00000   0.00000   0.00000
    D4        3.14159   0.00000   0.00000   0.00000   0.00000   3.14159
    D5        0.00000   0.00000   0.00000   0.00000   0.00000   0.00000
    D6        3.14159   0.00000   0.00000   0.00000   0.00000   3.14159
    D7        3.14159   0.00000   0.00000   0.00000   0.00000   3.14159
    D8        0.00000   0.00000   0.00000   0.00000   0.00000   0.00000
    D9        0.00000   0.00000   0.00000   0.00000   0.00000   0.00000
   D10        3.14159   0.00000   0.00000   0.00000   0.00000   3.14159
   D11        3.14159   0.00000   0.00000   0.00000   0.00000   3.14159
   D12        0.00000   0.00000   0.00000   0.00000   0.00000   0.00000
         Item               Value     Threshold  Converged?
 Maximum Force            0.002235     0.000450     NO 
 RMS     Force            0.000903     0.000300     NO 
 Maximum Displacement     0.019254     0.001800     NO 
 RMS     Displacement     0.005372     0.001200     NO 
 Predicted change in Energy=-3.137984D-05
 GradGradGradGradGradGradGradGradGradGradGradGradGradGradGradGradGradGrad

                          Input orientation:                          
 ---------------------------------------------------------------------
 Center     Atomic      Atomic             Coordinates (Angstroms)
 Number     Number       Type             X           Y           Z
 ---------------------------------------------------------------------
      1          6           0       -2.084080   -1.653429    0.000000
      2          6           0       -1.386773   -0.540876    0.000000
      3          6           0        0.074995   -0.500445    0.000000
      4          1           0        0.583728   -1.445535    0.000000
      5          6           0        0.767593    0.630943    0.000000
      6          1           0        0.290587    1.593641    0.000000
      7          1           0        1.839435    0.629212    0.000000
      8         17           0       -3.854526   -1.778030    0.000000
      9          9           0       -1.503239   -2.885061    0.000000
     10          1           0       -1.923080    0.387021    0.000000
 ---------------------------------------------------------------------
                    Distance matrix (angstroms):
                    1          2          3          4          5
     1  C    0.000000
     2  C    1.313015   0.000000
     3  C    2.447648   1.462328   0.000000
     4  H    2.675896   2.168244   1.073315   0.000000
     5  C    3.653819   2.452439   1.326548   2.084602   0.000000
     6  H    4.022749   2.714720   2.105155   3.053281   1.074394
     7  H    4.539209   3.431840   2.095083   2.425155   1.071843
     8  Cl   1.774825   2.760498   4.131992   4.450691   5.212210
     9  F    1.361724   2.347076   2.859583   2.535284   4.185566
    10  H    2.046792   1.071736   2.186299   3.105213   2.701707
                    6          7          8          9         10
     6  H    0.000000
     7  H    1.824569   0.000000
     8  Cl   5.343232   6.181909   0.000000
     9  F    4.824581   4.850112   2.598859   0.000000
    10  H    2.521162   3.770302   2.901366   3.298907   0.000000
 Stoichiometry    C4H4ClF
 Framework group  CS[SG(C4H4ClF)]
 Deg. of freedom    17
 Full point group                 CS      NOp   2
 Largest Abelian subgroup         CS      NOp   2
 Largest concise Abelian subgroup C1      NOp   1
                         Standard orientation:                         
 ---------------------------------------------------------------------
 Center     Atomic      Atomic             Coordinates (Angstroms)
 Number     Number       Type             X           Y           Z
 ---------------------------------------------------------------------
      1          6           0        0.000000    0.530595    0.000000
      2          6           0        0.186193   -0.769152    0.000000
      3          6           0       -0.903687   -1.744120    0.000000
      4          1           0       -1.902479   -1.351158    0.000000
      5          6           0       -0.701734   -3.055205    0.000000
      6          1           0        0.284208   -3.482102    0.000000
      7          1           0       -1.521154   -3.746145    0.000000
      8         17           0        1.271179    1.769186    0.000000
      9          9           0       -1.238910    1.095747    0.000000
     10          1           0        1.194932   -1.131179    0.000000
 ---------------------------------------------------------------------
 Rotational constants (GHZ):      7.4095083      1.4025120      1.1792897
 Standard basis: 6-31G (6D, 7F)
 There are    53 symmetry adapted basis functions of A'  symmetry.
 There are    13 symmetry adapted basis functions of A"  symmetry.
 Integral buffers will be    131072 words long.
 Raffenetti 1 integral format.
 Two-electron integral symmetry is turned on.
    66 basis functions,   172 primitive gaussians,    66 cartesian basis functions
    27 alpha electrons       27 beta electrons
       nuclear repulsion energy       258.7317650536 Hartrees.
 NAtoms=   10 NActive=   10 NUniq=   10 SFac= 7.50D-01 NAtFMM=   80 NAOKFM=F Big=F
 One-electron integrals computed using PRISM.
 NBasis=    66 RedAO= T  NBF=    53    13
 NBsUse=    66 1.00D-06 NBFU=    53    13
 Initial guess read from the read-write file.
 B after Tr=     0.000000    0.000000    0.000000
         Rot=    1.000000    0.000000    0.000000    0.000000 Ang=   0.00 deg.
 Initial guess orbital symmetries:
       Occupied  (A') (A') (A') (A') (A') (A') (A') (A') (A') (A")
                 (A') (A') (A') (A') (A') (A') (A') (A") (A') (A')
                 (A') (A') (A') (A") (A') (A") (A")
       Virtual   (A") (A') (A") (A') (A') (A') (A') (A') (A') (A')
                 (A') (A') (A") (A') (A') (A") (A') (A') (A") (A')
                 (A') (A") (A") (A') (A') (A') (A') (A') (A') (A')
                 (A') (A') (A') (A') (A") (A') (A') (A') (A')
 Requested convergence on RMS density matrix=1.00D-08 within 128 cycles.
 Requested convergence on MAX density matrix=1.00D-06.
 Requested convergence on             energy=1.00D-06.
 No special actions if energy rises.
 Keep R1 ints in memory in canonical form, NReq=3278450.
 SCF Done:  E(RHF) =  -712.554080465     A.U. after   10 cycles
             Convg  =    0.6239D-08             -V/T =  1.9996
 Calling FoFJK, ICntrl=      2127 FMM=F ISym2X=1 I1Cent= 0 IOpClX= 0 NMat=1 NMatS=1 NMatT=0.
 ***** Axes restored to original set *****
 -------------------------------------------------------------------
 Center     Atomic                   Forces (Hartrees/Bohr)
 Number     Number              X              Y              Z
 -------------------------------------------------------------------
      1        6          -0.001151441    0.000090712    0.000000000
      2        6           0.000147185    0.000487490    0.000000000
      3        6           0.000168939   -0.000340002    0.000000000
      4        1          -0.000113306    0.000159176    0.000000000
      5        6          -0.000057691    0.000171478    0.000000000
      6        1           0.000041324   -0.000040622    0.000000000
      7        1           0.000074656    0.000010515    0.000000000
      8       17           0.000401391    0.000020520    0.000000000
      9        9           0.000401613   -0.000468267    0.000000000
     10        1           0.000087330   -0.000091001    0.000000000
 -------------------------------------------------------------------
 Cartesian Forces:  Max     0.001151441 RMS     0.000281393

 GradGradGradGradGradGradGradGradGradGradGradGradGradGradGradGradGradGrad
 Berny optimization.
 Using GEDIIS/GDIIS optimizer.
 Internal  Forces:  Max     0.000594838 RMS     0.000173669
 Search for a local minimum.
 Step number   4 out of a maximum of   43
 All quantities printed in internal units (Hartrees-Bohrs-Radians)
 Mixed Optimization -- En-DIIS/RFO-DIIS
 Swaping is turned off.
 Update second derivatives using D2CorX and points    1    2    3    4
 DE= -3.27D-05 DEPred=-3.14D-05 R= 1.04D+00
 SS=  1.41D+00  RLast= 1.35D-02 DXNew= 8.4853D-01 4.0417D-02
 Trust test= 1.04D+00 RLast= 1.35D-02 DXMaxT set to 5.05D-01
     Eigenvalues ---    0.00237   0.01453   0.01500   0.02681   0.02681
     Eigenvalues ---    0.02681   0.02681   0.14966   0.15996   0.16067
     Eigenvalues ---    0.16247   0.21686   0.21937   0.23061   0.24137
     Eigenvalues ---    0.29128   0.31749   0.37186   0.37227   0.37238
     Eigenvalues ---    0.38024   0.49849   0.53928   0.707741000.00000
     Eigenvalues --- 1000.000001000.000001000.000001000.000001000.00000
     Eigenvalues --- 1000.000001000.000001000.00000
 En-DIIS/RFO-DIIS IScMMF=        0 using points:     4    3
 RFO step:  Lambda=-1.57180076D-06.
 DIIS coeffs:      1.03746     -0.03746
 Iteration  1 RMS(Cart)=  0.00094611 RMS(Int)=  0.00000061
 Iteration  2 RMS(Cart)=  0.00000069 RMS(Int)=  0.00000000
 ClnCor:  largest displacement from symmetrization is 1.46D-13 for atom    10.
 Variable       Old X    -DE/DX   Delta X   Delta X   Delta X     New X
                                  (DIIS)     (GDIIS)  (Total)
    R1        2.48124   0.00049  -0.00011   0.00087   0.00077   2.48200
    R2        3.35393  -0.00040  -0.00004  -0.00140  -0.00145   3.35249
    R3        2.57329   0.00059   0.00013   0.00115   0.00128   2.57457
    R4        2.76340   0.00011  -0.00015   0.00028   0.00012   2.76352
    R5        2.02529  -0.00012   0.00006  -0.00033  -0.00027   2.02502
    R6        2.02827  -0.00019   0.00005  -0.00053  -0.00048   2.02779
    R7        2.50681   0.00015  -0.00011   0.00024   0.00013   2.50695
    R8        2.03031  -0.00005   0.00003  -0.00014  -0.00012   2.03019
    R9        2.02549   0.00007  -0.00002   0.00021   0.00019   2.02568
    A1        2.20093   0.00016   0.00002   0.00072   0.00074   2.20166
    A2        2.14105  -0.00029  -0.00017  -0.00120  -0.00138   2.13968
    A3        1.94121   0.00013   0.00015   0.00048   0.00064   1.94184
    A4        2.15831  -0.00010  -0.00018  -0.00048  -0.00066   2.15765
    A5        2.05765   0.00008  -0.00003   0.00042   0.00040   2.05805
    A6        2.06722   0.00002   0.00021   0.00006   0.00027   2.06748
    A7        2.03695  -0.00002   0.00013  -0.00015  -0.00003   2.03693
    A8        2.14777  -0.00001  -0.00013  -0.00006  -0.00019   2.14758
    A9        2.09847   0.00003   0.00000   0.00021   0.00022   2.09868
   A10        2.13224   0.00002   0.00010   0.00016   0.00026   2.13250
   A11        2.11850   0.00000  -0.00007   0.00001  -0.00007   2.11843
   A12        2.03244  -0.00002  -0.00003  -0.00017  -0.00019   2.03225
    D1        3.14159   0.00000   0.00000   0.00000   0.00000   3.14159
    D2        0.00000   0.00000   0.00000   0.00000   0.00000   0.00000
    D3        0.00000   0.00000   0.00000   0.00000   0.00000   0.00000
    D4        3.14159   0.00000   0.00000   0.00000   0.00000   3.14159
    D5        0.00000   0.00000   0.00000   0.00000   0.00000   0.00000
    D6        3.14159   0.00000   0.00000   0.00000   0.00000   3.14159
    D7        3.14159   0.00000   0.00000   0.00000   0.00000   3.14159
    D8        0.00000   0.00000   0.00000   0.00000   0.00000   0.00000
    D9        0.00000   0.00000   0.00000   0.00000   0.00000   0.00000
   D10        3.14159   0.00000   0.00000   0.00000   0.00000   3.14159
   D11        3.14159   0.00000   0.00000   0.00000   0.00000   3.14159
   D12        0.00000   0.00000   0.00000   0.00000   0.00000   0.00000
         Item               Value     Threshold  Converged?
 Maximum Force            0.000595     0.000450     NO 
 RMS     Force            0.000174     0.000300     YES
 Maximum Displacement     0.002948     0.001800     NO 
 RMS     Displacement     0.000946     0.001200     YES
 Predicted change in Energy=-1.309650D-06
 GradGradGradGradGradGradGradGradGradGradGradGradGradGradGradGradGradGrad

                          Input orientation:                          
 ---------------------------------------------------------------------
 Center     Atomic      Atomic             Coordinates (Angstroms)
 Number     Number       Type             X           Y           Z
 ---------------------------------------------------------------------
      1          6           0       -2.084651   -1.653129    0.000000
      2          6           0       -1.387263   -0.540150    0.000000
      3          6           0        0.074593   -0.500512    0.000000
      4          1           0        0.582667   -1.445669    0.000000
      5          6           0        0.767629    0.630691    0.000000
      6          1           0        0.291240    1.593625    0.000000
      7          1           0        1.839570    0.628510    0.000000
      8         17           0       -3.854226   -1.779193    0.000000
      9          9           0       -1.501679   -2.884503    0.000000
     10          1           0       -1.923241    0.387772    0.000000
 ---------------------------------------------------------------------
                    Distance matrix (angstroms):
                    1          2          3          4          5
     1  C    0.000000
     2  C    1.313420   0.000000
     3  C    2.447624   1.462394   0.000000
     4  H    2.675373   2.168084   1.073061   0.000000
     5  C    3.653947   2.452432   1.326619   2.084582   0.000000
     6  H    4.023216   2.714842   2.105314   3.053234   1.074331
     7  H    4.539316   3.431941   2.095193   2.425289   1.071944
     8  Cl   1.774059   2.760640   4.131664   4.449410   5.212396
     9  F    1.362402   2.347144   2.857980   2.532734   4.184058
    10  H    2.047274   1.071593   2.186410   3.105008   2.701812
                    6          7          8          9         10
     6  H    0.000000
     7  H    1.824492   0.000000
     8  Cl   5.344229   6.181937   0.000000
     9  F    4.823711   4.848218   2.599266   0.000000
    10  H    2.521509   3.770504   2.902489   3.299318   0.000000
 Stoichiometry    C4H4ClF
 Framework group  CS[SG(C4H4ClF)]
 Deg. of freedom    17
 Full point group                 CS      NOp   2
 Largest Abelian subgroup         CS      NOp   2
 Largest concise Abelian subgroup C1      NOp   1
                         Standard orientation:                         
 ---------------------------------------------------------------------
 Center     Atomic      Atomic             Coordinates (Angstroms)
 Number     Number       Type             X           Y           Z
 ---------------------------------------------------------------------
      1          6           0        0.000000    0.530707    0.000000
      2          6           0        0.188611   -0.769100    0.000000
      3          6           0       -0.900195   -1.745367    0.000000
      4          1           0       -1.899192   -1.353621    0.000000
      5          6           0       -0.696472   -3.056250    0.000000
      6          1           0        0.289874   -3.482053    0.000000
      7          1           0       -1.515086   -3.748301    0.000000
      8         17           0        1.267466    1.772003    0.000000
      9          9           0       -1.241324    1.092182    0.000000
     10          1           0        1.197728   -1.129648    0.000000
 ---------------------------------------------------------------------
 Rotational constants (GHZ):      7.4123190      1.4025694      1.1794014
 Standard basis: 6-31G (6D, 7F)
 There are    53 symmetry adapted basis functions of A'  symmetry.
 There are    13 symmetry adapted basis functions of A"  symmetry.
 Integral buffers will be    131072 words long.
 Raffenetti 1 integral format.
 Two-electron integral symmetry is turned on.
    66 basis functions,   172 primitive gaussians,    66 cartesian basis functions
    27 alpha electrons       27 beta electrons
       nuclear repulsion energy       258.7328345495 Hartrees.
 NAtoms=   10 NActive=   10 NUniq=   10 SFac= 7.50D-01 NAtFMM=   80 NAOKFM=F Big=F
 One-electron integrals computed using PRISM.
 NBasis=    66 RedAO= T  NBF=    53    13
 NBsUse=    66 1.00D-06 NBFU=    53    13
 Initial guess read from the read-write file.
 B after Tr=     0.000000    0.000000    0.000000
         Rot=    1.000000    0.000000    0.000000    0.000000 Ang=   0.00 deg.
 Initial guess orbital symmetries:
       Occupied  (A') (A') (A') (A') (A') (A') (A') (A') (A') (A")
                 (A') (A') (A') (A') (A') (A') (A') (A") (A') (A')
                 (A') (A') (A') (A") (A') (A") (A")
       Virtual   (A") (A') (A") (A') (A') (A') (A') (A') (A') (A')
                 (A') (A') (A") (A') (A') (A") (A') (A') (A") (A')
                 (A') (A") (A") (A') (A') (A') (A') (A') (A') (A')
                 (A') (A') (A') (A') (A") (A') (A') (A') (A')
 Requested convergence on RMS density matrix=1.00D-08 within 128 cycles.
 Requested convergence on MAX density matrix=1.00D-06.
 Requested convergence on             energy=1.00D-06.
 No special actions if energy rises.
 Keep R1 ints in memory in canonical form, NReq=3278450.
 SCF Done:  E(RHF) =  -712.554082045     A.U. after    8 cycles
             Convg  =    0.8777D-08             -V/T =  1.9996
 Calling FoFJK, ICntrl=      2127 FMM=F ISym2X=1 I1Cent= 0 IOpClX= 0 NMat=1 NMatS=1 NMatT=0.
 ***** Axes restored to original set *****
 -------------------------------------------------------------------
 Center     Atomic                   Forces (Hartrees/Bohr)
 Number     Number              X              Y              Z
 -------------------------------------------------------------------
      1        6          -0.000290668    0.000197952    0.000000000
      2        6          -0.000044855   -0.000093416    0.000000000
      3        6           0.000047899   -0.000027680    0.000000000
      4        1          -0.000019930    0.000017332    0.000000000
      5        6           0.000046062    0.000055229    0.000000000
      6        1          -0.000004779   -0.000014527    0.000000000
      7        1           0.000004474    0.000002605    0.000000000
      8       17           0.000170622   -0.000025185    0.000000000
      9        9           0.000070100   -0.000106231    0.000000000
     10        1           0.000021075   -0.000006079    0.000000000
 -------------------------------------------------------------------
 Cartesian Forces:  Max     0.000290668 RMS     0.000079588

 GradGradGradGradGradGradGradGradGradGradGradGradGradGradGradGradGradGrad
 Berny optimization.
 Using GEDIIS/GDIIS optimizer.
 Internal  Forces:  Max     0.000168402 RMS     0.000047160
 Search for a local minimum.
 Step number   5 out of a maximum of   43
 All quantities printed in internal units (Hartrees-Bohrs-Radians)
 Mixed Optimization -- En-DIIS/RFO-DIIS
 Swaping is turned off.
 Update second derivatives using D2CorX and points    1    2    3    4    5
 DE= -1.58D-06 DEPred=-1.31D-06 R= 1.21D+00
 SS=  1.41D+00  RLast= 2.90D-03 DXNew= 8.4853D-01 8.7004D-03
 Trust test= 1.21D+00 RLast= 2.90D-03 DXMaxT set to 5.05D-01
     Eigenvalues ---    0.00237   0.01453   0.01500   0.02681   0.02681
     Eigenvalues ---    0.02681   0.02681   0.14901   0.16010   0.16086
     Eigenvalues ---    0.16349   0.18008   0.21957   0.22575   0.23937
     Eigenvalues ---    0.27931   0.32677   0.37220   0.37224   0.37239
     Eigenvalues ---    0.38148   0.48815   0.55677   0.702371000.00000
     Eigenvalues --- 1000.000001000.000001000.000001000.000001000.00000
     Eigenvalues --- 1000.000001000.000001000.00000
 En-DIIS/RFO-DIIS IScMMF=        0 using points:     5    4    3
 RFO step:  Lambda=-1.54654793D-07.
 DIIS coeffs:      1.26741     -0.27314      0.00573
 Iteration  1 RMS(Cart)=  0.00032100 RMS(Int)=  0.00000009
 Iteration  2 RMS(Cart)=  0.00000011 RMS(Int)=  0.00000000
 ClnCor:  largest displacement from symmetrization is 2.37D-12 for atom     1.
 Variable       Old X    -DE/DX   Delta X   Delta X   Delta X     New X
                                  (DIIS)     (GDIIS)  (Total)
    R1        2.48200  -0.00003   0.00022  -0.00031  -0.00009   2.48191
    R2        3.35249  -0.00017  -0.00038  -0.00046  -0.00084   3.35164
    R3        2.57457   0.00013   0.00032   0.00015   0.00047   2.57504
    R4        2.76352   0.00007   0.00006   0.00016   0.00022   2.76374
    R5        2.02502  -0.00002  -0.00008   0.00004  -0.00004   2.02498
    R6        2.02779  -0.00002  -0.00014   0.00005  -0.00009   2.02770
    R7        2.50695   0.00006   0.00005   0.00003   0.00009   2.50703
    R8        2.03019  -0.00001  -0.00004   0.00001  -0.00003   2.03016
    R9        2.02568   0.00000   0.00005  -0.00003   0.00002   2.02570
    A1        2.20166   0.00010   0.00019   0.00043   0.00062   2.20229
    A2        2.13968  -0.00007  -0.00034  -0.00020  -0.00054   2.13914
    A3        1.94184  -0.00003   0.00015  -0.00023  -0.00009   1.94176
    A4        2.15765   0.00002  -0.00015   0.00019   0.00004   2.15769
    A5        2.05805   0.00000   0.00011  -0.00007   0.00004   2.05809
    A6        2.06748  -0.00003   0.00004  -0.00012  -0.00008   2.06740
    A7        2.03693  -0.00002  -0.00003  -0.00006  -0.00008   2.03684
    A8        2.14758   0.00002  -0.00003   0.00007   0.00004   2.14762
    A9        2.09868   0.00000   0.00006  -0.00002   0.00004   2.09872
   A10        2.13250  -0.00002   0.00005  -0.00009  -0.00004   2.13246
   A11        2.11843   0.00001  -0.00001   0.00007   0.00006   2.11850
   A12        2.03225   0.00001  -0.00005   0.00003  -0.00002   2.03223
    D1        3.14159   0.00000   0.00000   0.00000   0.00000   3.14159
    D2        0.00000   0.00000   0.00000   0.00000   0.00000   0.00000
    D3        0.00000   0.00000   0.00000   0.00000   0.00000   0.00000
    D4        3.14159   0.00000   0.00000   0.00000   0.00000   3.14159
    D5        0.00000   0.00000   0.00000   0.00000   0.00000   0.00000
    D6        3.14159   0.00000   0.00000   0.00000   0.00000   3.14159
    D7        3.14159   0.00000   0.00000   0.00000   0.00000   3.14159
    D8        0.00000   0.00000   0.00000   0.00000   0.00000   0.00000
    D9        0.00000   0.00000   0.00000   0.00000   0.00000   0.00000
   D10        3.14159   0.00000   0.00000   0.00000   0.00000   3.14159
   D11        3.14159   0.00000   0.00000   0.00000   0.00000   3.14159
   D12        0.00000   0.00000   0.00000   0.00000   0.00000   0.00000
         Item               Value     Threshold  Converged?
 Maximum Force            0.000168     0.000450     YES
 RMS     Force            0.000047     0.000300     YES
 Maximum Displacement     0.001083     0.001800     YES
 RMS     Displacement     0.000321     0.001200     YES
 Predicted change in Energy=-1.682429D-07
 Optimization completed.
    -- Stationary point found.
                           ----------------------------
                           !   Optimized Parameters   !
                           ! (Angstroms and Degrees)  !
 --------------------------                            --------------------------
 ! Name  Definition              Value          Derivative Info.                !
 --------------------------------------------------------------------------------
 ! R1    R(1,2)                  1.3134         -DE/DX =    0.0                 !
 ! R2    R(1,8)                  1.7741         -DE/DX =   -0.0002              !
 ! R3    R(1,9)                  1.3624         -DE/DX =    0.0001              !
 ! R4    R(2,3)                  1.4624         -DE/DX =    0.0001              !
 ! R5    R(2,10)                 1.0716         -DE/DX =    0.0                 !
 ! R6    R(3,4)                  1.0731         -DE/DX =    0.0                 !
 ! R7    R(3,5)                  1.3266         -DE/DX =    0.0001              !
 ! R8    R(5,6)                  1.0743         -DE/DX =    0.0                 !
 ! R9    R(5,7)                  1.0719         -DE/DX =    0.0                 !
 ! A1    A(2,1,8)              126.1459         -DE/DX =    0.0001              !
 ! A2    A(2,1,9)              122.5945         -DE/DX =   -0.0001              !
 ! A3    A(8,1,9)              111.2595         -DE/DX =    0.0                 !
 ! A4    A(1,2,3)              123.6242         -DE/DX =    0.0                 !
 ! A5    A(1,2,10)             117.9177         -DE/DX =    0.0                 !
 ! A6    A(3,2,10)             118.458          -DE/DX =    0.0                 !
 ! A7    A(2,3,4)              116.7073         -DE/DX =    0.0                 !
 ! A8    A(2,3,5)              123.047          -DE/DX =    0.0                 !
 ! A9    A(4,3,5)              120.2457         -DE/DX =    0.0                 !
 ! A10   A(3,5,6)              122.1834         -DE/DX =    0.0                 !
 ! A11   A(3,5,7)              121.3773         -DE/DX =    0.0                 !
 ! A12   A(6,5,7)              116.4393         -DE/DX =    0.0                 !
 ! D1    D(8,1,2,3)            180.0            -DE/DX =    0.0                 !
 ! D2    D(8,1,2,10)             0.0            -DE/DX =    0.0                 !
 ! D3    D(9,1,2,3)              0.0            -DE/DX =    0.0                 !
 ! D4    D(9,1,2,10)           180.0            -DE/DX =    0.0                 !
 ! D5    D(1,2,3,4)              0.0            -DE/DX =    0.0                 !
 ! D6    D(1,2,3,5)            180.0            -DE/DX =    0.0                 !
 ! D7    D(10,2,3,4)           180.0            -DE/DX =    0.0                 !
 ! D8    D(10,2,3,5)             0.0            -DE/DX =    0.0                 !
 ! D9    D(2,3,5,6)              0.0            -DE/DX =    0.0                 !
 ! D10   D(2,3,5,7)            180.0            -DE/DX =    0.0                 !
 ! D11   D(4,3,5,6)            180.0            -DE/DX =    0.0                 !
 ! D12   D(4,3,5,7)              0.0            -DE/DX =    0.0                 !
 --------------------------------------------------------------------------------
 GradGradGradGradGradGradGradGradGradGradGradGradGradGradGradGradGradGrad

                          Input orientation:                          
 ---------------------------------------------------------------------
 Center     Atomic      Atomic             Coordinates (Angstroms)
 Number     Number       Type             X           Y           Z
 ---------------------------------------------------------------------
      1          6           0       -2.084651   -1.653129    0.000000
      2          6           0       -1.387263   -0.540150    0.000000
      3          6           0        0.074593   -0.500512    0.000000
      4          1           0        0.582667   -1.445669    0.000000
      5          6           0        0.767629    0.630691    0.000000
      6          1           0        0.291240    1.593625    0.000000
      7          1           0        1.839570    0.628510    0.000000
      8         17           0       -3.854226   -1.779193    0.000000
      9          9           0       -1.501679   -2.884503    0.000000
     10          1           0       -1.923241    0.387772    0.000000
 ---------------------------------------------------------------------
                    Distance matrix (angstroms):
                    1          2          3          4          5
     1  C    0.000000
     2  C    1.313420   0.000000
     3  C    2.447624   1.462394   0.000000
     4  H    2.675373   2.168084   1.073061   0.000000
     5  C    3.653947   2.452432   1.326619   2.084582   0.000000
     6  H    4.023216   2.714842   2.105314   3.053234   1.074331
     7  H    4.539316   3.431941   2.095193   2.425289   1.071944
     8  Cl   1.774059   2.760640   4.131664   4.449410   5.212396
     9  F    1.362402   2.347144   2.857980   2.532734   4.184058
    10  H    2.047274   1.071593   2.186410   3.105008   2.701812
                    6          7          8          9         10
     6  H    0.000000
     7  H    1.824492   0.000000
     8  Cl   5.344229   6.181937   0.000000
     9  F    4.823711   4.848218   2.599266   0.000000
    10  H    2.521509   3.770504   2.902489   3.299318   0.000000
 Stoichiometry    C4H4ClF
 Framework group  CS[SG(C4H4ClF)]
 Deg. of freedom    17
 Full point group                 CS      NOp   2
 Largest Abelian subgroup         CS      NOp   2
 Largest concise Abelian subgroup C1      NOp   1
                         Standard orientation:                         
 ---------------------------------------------------------------------
 Center     Atomic      Atomic             Coordinates (Angstroms)
 Number     Number       Type             X           Y           Z
 ---------------------------------------------------------------------
      1          6           0        0.000000    0.530707    0.000000
      2          6           0        0.188611   -0.769100    0.000000
      3          6           0       -0.900195   -1.745367    0.000000
      4          1           0       -1.899192   -1.353621    0.000000
      5          6           0       -0.696472   -3.056250    0.000000
      6          1           0        0.289874   -3.482053    0.000000
      7          1           0       -1.515086   -3.748301    0.000000
      8         17           0        1.267466    1.772003    0.000000
      9          9           0       -1.241324    1.092182    0.000000
     10          1           0        1.197728   -1.129648    0.000000
 ---------------------------------------------------------------------
 Rotational constants (GHZ):      7.4123190      1.4025694      1.1794014

 **********************************************************************

            Population analysis using the SCF density.

 **********************************************************************

 Orbital symmetries:
       Occupied  (A') (A') (A') (A') (A') (A') (A') (A') (A') (A")
                 (A') (A') (A') (A') (A') (A') (A') (A") (A') (A')
                 (A') (A') (A') (A") (A') (A") (A")
       Virtual   (A") (A') (A") (A') (A') (A') (A') (A') (A') (A')
                 (A') (A') (A") (A') (A') (A") (A') (A') (A") (A')
                 (A') (A") (A") (A') (A') (A') (A') (A') (A') (A')
                 (A') (A') (A') (A') (A") (A') (A') (A') (A')
 The electronic state is 1-A'.
 Alpha  occ. eigenvalues -- -104.84773 -26.33123 -11.40683 -11.27952 -11.26414
 Alpha  occ. eigenvalues --  -11.25002 -10.58843  -8.05695  -8.05259  -8.05243
 Alpha  occ. eigenvalues --   -1.64571  -1.17822  -1.11194  -1.02435  -0.84007
 Alpha  occ. eigenvalues --   -0.79829  -0.73810  -0.70967  -0.69791  -0.62909
 Alpha  occ. eigenvalues --   -0.60909  -0.57013  -0.52233  -0.52193  -0.48384
 Alpha  occ. eigenvalues --   -0.45569  -0.34258
 Alpha virt. eigenvalues --    0.10404   0.17762   0.23622   0.24452   0.26691
 Alpha virt. eigenvalues --    0.29248   0.32017   0.37668   0.44600   0.50363
 Alpha virt. eigenvalues --    0.53917   0.59244   0.62419   0.62737   0.66323
 Alpha virt. eigenvalues --    0.73652   0.74374   0.77778   0.79340   0.82295
 Alpha virt. eigenvalues --    0.87367   0.88334   0.91028   0.94121   1.02246
 Alpha virt. eigenvalues --    1.11823   1.15053   1.18184   1.22653   1.24890
 Alpha virt. eigenvalues --    1.31520   1.35796   1.38964   1.50128   1.57003
 Alpha virt. eigenvalues --    1.60745   1.67772   1.80281   2.47366
          Condensed to atoms (all electrons):
              1          2          3          4          5          6
     1  C    5.144325   0.438071  -0.045108  -0.000350   0.002278   0.000296
     2  C    0.438071   5.298834   0.332608  -0.041973  -0.054338  -0.001675
     3  C   -0.045108   0.332608   4.968207   0.396793   0.583651  -0.051182
     4  H   -0.000350  -0.041973   0.396793   0.446938  -0.028196   0.002400
     5  C    0.002278  -0.054338   0.583651  -0.028196   5.065112   0.400224
     6  H    0.000296  -0.001675  -0.051182   0.002400   0.400224   0.498937
     7  H   -0.000179   0.002864  -0.035350  -0.002178   0.391425  -0.023598
     8  Cl   0.185386  -0.086812   0.002863   0.000077  -0.000050  -0.000001
     9  F    0.170864  -0.079806   0.005104   0.002646   0.000394  -0.000001
    10  H   -0.018473   0.372454  -0.025550   0.001607   0.000588   0.001718
              7          8          9         10
     1  C   -0.000179   0.185386   0.170864  -0.018473
     2  C    0.002864  -0.086812  -0.079806   0.372454
     3  C   -0.035350   0.002863   0.005104  -0.025550
     4  H   -0.002178   0.000077   0.002646   0.001607
     5  C    0.391425  -0.000050   0.000394   0.000588
     6  H   -0.023598  -0.000001  -0.000001   0.001718
     7  H    0.486137   0.000001  -0.000002   0.000090
     8  Cl   0.000001  16.799912  -0.041590  -0.000317
     9  F   -0.000002  -0.041590   9.342803   0.001416
    10  H    0.000090  -0.000317   0.001416   0.430623
 Mulliken atomic charges:
              1
     1  C    0.122891
[...]
 IR Inten    --     2.8180                 4.9892                17.3132
  Atom  AN      X      Y      Z        X      Y      Z        X      Y      Z
     1   6     0.00   0.00   0.00     0.00   0.01   0.00     0.00   0.00   0.00
     2   6     0.02  -0.01   0.00     0.08  -0.03   0.00    -0.01   0.00   0.00
     3   6    -0.08   0.03   0.00     0.01  -0.01   0.00    -0.02   0.01   0.00
     4   1     0.88  -0.35   0.00    -0.16   0.06   0.00     0.22  -0.09   0.00
     5   6     0.02  -0.01   0.00    -0.01   0.00   0.00    -0.09  -0.03   0.00
     6   1    -0.20   0.09   0.00     0.06  -0.02   0.00     0.50  -0.22   0.00
     7   1    -0.08  -0.07   0.00     0.07   0.06   0.00     0.60   0.51   0.00
     8  17     0.00   0.00   0.00     0.00   0.00   0.00     0.00   0.00   0.00
     9   9     0.00   0.00   0.00     0.00   0.00   0.00     0.00   0.00   0.00
    10   1    -0.18   0.07   0.00    -0.91   0.34   0.00     0.07  -0.02   0.00

 -------------------
 - Thermochemistry -
 -------------------
 Temperature   298.150 Kelvin.  Pressure   1.00000 Atm.
 Atom     1 has atomic number  6 and mass  12.00000
 Atom     2 has atomic number  6 and mass  12.00000
 Atom     3 has atomic number  6 and mass  12.00000
 Atom     4 has atomic number  1 and mass   1.00783
 Atom     5 has atomic number  6 and mass  12.00000
 Atom     6 has atomic number  1 and mass   1.00783
 Atom     7 has atomic number  1 and mass   1.00783
 Atom     8 has atomic number 17 and mass  34.96885
 Atom     9 has atomic number  9 and mass  18.99840
 Atom    10 has atomic number  1 and mass   1.00783
 Molecular mass:   105.99856 amu.
 Principal axes and moments of inertia in atomic units:
                           1         2         3
     Eigenvalues --   243.478621286.739361530.21798
           X            0.37319   0.92776   0.00000
           Y            0.92776  -0.37319   0.00000
           Z            0.00000   0.00000   1.00000
 This molecule is an asymmetric top.
 Rotational symmetry number  1.
 Rotational temperatures (Kelvin)      0.35573     0.06731     0.05660
 Rotational constants (GHZ):           7.41232     1.40257     1.17940
 Zero-point vibrational energy     195603.9 (Joules/Mol)
                                   46.75046 (Kcal/Mol)
 Warning -- explicit consideration of   7 degrees of freedom as
           vibrations may cause significant error
 Vibrational temperatures:    184.41   249.53   323.10   516.53   645.09
          (Kelvin)            675.21   823.22  1089.50  1257.45  1496.98
                             1522.23  1621.49  1650.82  1680.18  1887.62
                             2098.39  2126.63  2320.36  2644.13  2772.90
                             4793.84  4855.94  4888.60  4927.29
 
 Zero-point correction=                           0.074502 (Hartree/Particle)
 Thermal correction to Energy=                    0.080485
 Thermal correction to Enthalpy=                  0.081429
 Thermal correction to Gibbs Free Energy=         0.043994
 Sum of electronic and zero-point Energies=           -712.479580
 Sum of electronic and thermal Energies=              -712.473597
 Sum of electronic and thermal Enthalpies=            -712.472653
 Sum of electronic and thermal Free Energies=         -712.510088
 
                     E (Thermal)             CV                S
                      KCal/Mol        Cal/Mol-Kelvin    Cal/Mol-Kelvin
 Total                   50.505             19.934             78.787
 Electronic               0.000              0.000              0.000
 Translational            0.889              2.981             39.892
 Rotational               0.889              2.981             27.663
 Vibrational             48.727             13.972             11.233
 Vibration     1          0.611              1.925              2.973
 Vibration     2          0.627              1.875              2.398
 Vibration     3          0.649              1.804              1.922
 Vibration     4          0.734              1.557              1.126
 Vibration     5          0.807              1.365              0.801
 Vibration     6          0.826              1.318              0.740
 Vibration     7          0.928              1.091              0.500
                       Q            Log10(Q)             Ln(Q)
 Total Bot       0.580789D-20        -20.235981        -46.595069
 Total V=0       0.107721D+15         14.032302         32.310570
 Vib (Bot)       0.546279D-33        -33.262585        -76.589933
 Vib (Bot)    1  0.159133D+01          0.201762          0.464573
 Vib (Bot)    2  0.116067D+01          0.064708          0.148995
 Vib (Bot)    3  0.879130D+00         -0.055947         -0.128822
 Vib (Bot)    4  0.510882D+00         -0.291680         -0.671617
 Vib (Bot)    5  0.382982D+00         -0.416821         -0.959766
 Vib (Bot)    6  0.359637D+00         -0.444136         -1.022661
 Vib (Bot)    7  0.268410D+00         -0.571201         -1.315239
 Vib (V=0)       0.101321D+02          1.005698          2.315706
 Vib (V=0)    1  0.216804D+01          0.336067          0.773822
 Vib (V=0)    2  0.176378D+01          0.246445          0.567461
 Vib (V=0)    3  0.151137D+01          0.179371          0.413017
 Vib (V=0)    4  0.121484D+01          0.084520          0.194615
 Vib (V=0)    5  0.112982D+01          0.053010          0.122060
 Vib (V=0)    6  0.111590D+01          0.047627          0.109665
 Vib (V=0)    7  0.106749D+01          0.028363          0.065309
 Electronic      0.100000D+01          0.000000          0.000000
 Translational   0.428948D+08          7.632405         17.574262
 Rotational      0.247856D+06          5.394199         12.420602
 ***** Axes restored to original set *****
 -------------------------------------------------------------------
 Center     Atomic                   Forces (Hartrees/Bohr)
 Number     Number              X              Y              Z
 -------------------------------------------------------------------
      1        6          -0.000290635    0.000197981    0.000000000
      2        6          -0.000044869   -0.000093446    0.000000000
      3        6           0.000047881   -0.000027689    0.000000000
      4        1          -0.000019929    0.000017339    0.000000000
      5        6           0.000046064    0.000055220    0.000000000
      6        1          -0.000004783   -0.000014516    0.000000000
      7        1           0.000004485    0.000002607    0.000000000
      8       17           0.000170624   -0.000025192    0.000000000
      9        9           0.000070087   -0.000106223    0.000000000
     10        1           0.000021075   -0.000006081    0.000000000
 -------------------------------------------------------------------
 Cartesian Forces:  Max     0.000290635 RMS     0.000079587

 GradGradGradGradGradGradGradGradGradGradGradGradGradGradGradGradGradGrad
 Berny optimization.
 Internal  Forces:  Max     0.000168403 RMS     0.000047161
 Search for a local minimum.
 Step number   1 out of a maximum of    2
 All quantities printed in internal units (Hartrees-Bohrs-Radians)
 Second derivative matrix not updated -- analytic derivatives used.
     Eigenvalues ---    0.00603   0.02887   0.03136   0.03419   0.03902
     Eigenvalues ---    0.05440   0.06266   0.12641   0.13341   0.13858
     Eigenvalues ---    0.15778   0.17223   0.19084   0.21320   0.23040
     Eigenvalues ---    0.30880   0.39755   0.40135   0.40411   0.40668
     Eigenvalues ---    0.40864   0.46280   0.73315   0.762191000.00000
     Eigenvalues --- 1000.000001000.000001000.000001000.000001000.00000
     Eigenvalues --- 1000.000001000.000001000.00000
 Angle between quadratic step and forces=  19.96 degrees.
 Linear search not attempted -- first point.
 Iteration  1 RMS(Cart)=  0.00029335 RMS(Int)=  0.00000008
 Iteration  2 RMS(Cart)=  0.00000011 RMS(Int)=  0.00000000
 ClnCor:  largest displacement from symmetrization is 5.62D-15 for atom     7.
 Variable       Old X    -DE/DX   Delta X   Delta X   Delta X     New X
                                 (Linear)    (Quad)   (Total)
    R1        2.48200  -0.00003   0.00000  -0.00005  -0.00005   2.48195
    R2        3.35249  -0.00017   0.00000  -0.00087  -0.00087   3.35162
    R3        2.57457   0.00013   0.00000   0.00047   0.00047   2.57504
    R4        2.76352   0.00007   0.00000   0.00019   0.00019   2.76371
    R5        2.02502  -0.00002   0.00000  -0.00002  -0.00002   2.02500
    R6        2.02779  -0.00002   0.00000  -0.00007  -0.00007   2.02772
    R7        2.50695   0.00006   0.00000   0.00008   0.00008   2.50702
    R8        2.03019  -0.00001   0.00000  -0.00003  -0.00003   2.03017
    R9        2.02568   0.00000   0.00000   0.00000   0.00000   2.02569
    A1        2.20166   0.00010   0.00000   0.00068   0.00068   2.20234
    A2        2.13968  -0.00007   0.00000  -0.00055  -0.00055   2.13913
    A3        1.94184  -0.00003   0.00000  -0.00013  -0.00013   1.94172
    A4        2.15765   0.00002   0.00000   0.00012   0.00012   2.15777
    A5        2.05805   0.00000   0.00000   0.00010   0.00010   2.05815
    A6        2.06748  -0.00003   0.00000  -0.00022  -0.00022   2.06727
    A7        2.03693  -0.00002   0.00000  -0.00008  -0.00008   2.03684
    A8        2.14758   0.00002   0.00000   0.00000   0.00000   2.14757
    A9        2.09868   0.00000   0.00000   0.00009   0.00009   2.09877
   A10        2.13250  -0.00002   0.00000  -0.00011  -0.00011   2.13240
   A11        2.11843   0.00001   0.00000   0.00004   0.00004   2.11848
   A12        2.03225   0.00001   0.00000   0.00006   0.00006   2.03231
    D1        3.14159   0.00000   0.00000   0.00000   0.00000   3.14159
    D2        0.00000   0.00000   0.00000   0.00000   0.00000   0.00000
    D3        0.00000   0.00000   0.00000   0.00000   0.00000   0.00000
    D4        3.14159   0.00000   0.00000   0.00000   0.00000   3.14159
    D5        0.00000   0.00000   0.00000   0.00000   0.00000   0.00000
    D6        3.14159   0.00000   0.00000   0.00000   0.00000   3.14159
    D7        3.14159   0.00000   0.00000   0.00000   0.00000   3.14159
    D8        0.00000   0.00000   0.00000   0.00000   0.00000   0.00000
    D9        0.00000   0.00000   0.00000   0.00000   0.00000   0.00000
   D10        3.14159   0.00000   0.00000   0.00000   0.00000   3.14159
   D11        3.14159   0.00000   0.00000   0.00000   0.00000   3.14159
   D12        0.00000   0.00000   0.00000   0.00000   0.00000   0.00000
         Item               Value     Threshold  Converged?
 Maximum Force            0.000168     0.000450     YES
 RMS     Force            0.000047     0.000300     YES
 Maximum Displacement     0.001036     0.001800     YES
 RMS     Displacement     0.000293     0.001200     YES
 Predicted change in Energy=-1.752356D-07
 Optimization completed.
    -- Stationary point found.
                           ----------------------------
                           !   Optimized Parameters   !
                           ! (Angstroms and Degrees)  !
 --------------------------                            --------------------------
 ! Name  Definition              Value          Derivative Info.                !
 --------------------------------------------------------------------------------
 ! R1    R(1,2)                  1.3134         -DE/DX =    0.0                 !
 ! R2    R(1,8)                  1.7741         -DE/DX =   -0.0002              !
 ! R3    R(1,9)                  1.3624         -DE/DX =    0.0001              !
 ! R4    R(2,3)                  1.4624         -DE/DX =    0.0001              !
 ! R5    R(2,10)                 1.0716         -DE/DX =    0.0                 !
 ! R6    R(3,4)                  1.0731         -DE/DX =    0.0                 !
 ! R7    R(3,5)                  1.3266         -DE/DX =    0.0001              !
 ! R8    R(5,6)                  1.0743         -DE/DX =    0.0                 !
 ! R9    R(5,7)                  1.0719         -DE/DX =    0.0                 !
 ! A1    A(2,1,8)              126.1459         -DE/DX =    0.0001              !
 ! A2    A(2,1,9)              122.5945         -DE/DX =   -0.0001              !
 ! A3    A(8,1,9)              111.2595         -DE/DX =    0.0                 !
 ! A4    A(1,2,3)              123.6242         -DE/DX =    0.0                 !
 ! A5    A(1,2,10)             117.9177         -DE/DX =    0.0                 !
 ! A6    A(3,2,10)             118.458          -DE/DX =    0.0                 !
 ! A7    A(2,3,4)              116.7073         -DE/DX =    0.0                 !
 ! A8    A(2,3,5)              123.047          -DE/DX =    0.0                 !
 ! A9    A(4,3,5)              120.2457         -DE/DX =    0.0                 !
 ! A10   A(3,5,6)              122.1834         -DE/DX =    0.0                 !
 ! A11   A(3,5,7)              121.3773         -DE/DX =    0.0                 !
 ! A12   A(6,5,7)              116.4393         -DE/DX =    0.0                 !
 ! D1    D(8,1,2,3)            180.0            -DE/DX =    0.0                 !
 ! D2    D(8,1,2,10)             0.0            -DE/DX =    0.0                 !
 ! D3    D(9,1,2,3)              0.0            -DE/DX =    0.0                 !
 ! D4    D(9,1,2,10)           180.0            -DE/DX =    0.0                 !
 ! D5    D(1,2,3,4)              0.0            -DE/DX =    0.0                 !
 ! D6    D(1,2,3,5)            180.0            -DE/DX =    0.0                 !
 ! D7    D(10,2,3,4)           180.0            -DE/DX =    0.0                 !
 ! D8    D(10,2,3,5)             0.0            -DE/DX =    0.0                 !
 ! D9    D(2,3,5,6)              0.0            -DE/DX =    0.0                 !
 ! D10   D(2,3,5,7)            180.0            -DE/DX =    0.0                 !
 ! D11   D(4,3,5,6)            180.0            -DE/DX =    0.0                 !
 ! D12   D(4,3,5,7)              0.0            -DE/DX =    0.0                 !
 --------------------------------------------------------------------------------
 GradGradGradGradGradGradGradGradGradGradGradGradGradGradGradGradGradGrad

 1\1\GINC-MALLOS71\Freq\RHF\6-31G\C4H4Cl1F1\MARLIN\26-Oct-2024\0\\#N Ge
 om=AllCheck Guess=TCheck SCRF=Check GenChk RHF/6-31G Freq\\Title Card 
 Required\\0,1\C,-2.0846510653,-1.6531289162,0.\C,-1.3872629746,-0.5401
 497368,0.\C,0.0745934908,-0.5005123528,0.\H,0.5826665316,-1.445669228,
 0.\C,0.7676285339,0.6306905352,0.\H,0.2912403069,1.5936247348,0.\H,1.8
 395703374,0.6285103963,0.\Cl,-3.8542256641,-1.7791929632,0.\F,-1.50167
 927,-2.8845032226,0.\H,-1.9232405866,0.3877721532,0.\\Version=EM64L-G0
 9RevA.01\State=1-A'\HF=-712.554082\RMSD=2.502e-09\RMSF=7.959e-05\ZeroP
 oint=0.0745016\Thermal=0.0804847\Dipole=0.5109114,0.9459361,0.\DipoleD
 eriv=1.4201388,-0.0426964,0.,0.0674421,1.2400122,0.,0.,0.,0.1197416,-0
 .2296032,-0.0353018,0.,0.0081356,-0.1172601,0.,0.,0.,-0.1091212,0.2107
 679,0.0869345,0.,-0.1787527,-0.008895,0.,0.,0.,-0.1263736,-0.0087158,0
 .0014365,0.,0.0739422,-0.0067661,0.,0.,0.,0.1814609,-0.0470277,-0.1631
 958,0.,-0.0286252,0.0784877,0.,0.,0.,-0.3553676,0.0189758,0.1021508,0.
 ,0.0605889,-0.049808,0.,0.,0.,0.1829066,-0.1036019,-0.0181116,0.,0.002
 0586,0.0509413,0.,0.,0.,0.1736965,-0.7779901,-0.2253877,0.,-0.0364162,
 -0.1857765,0.,0.,0.,-0.0598097,-0.4957637,0.2932552,0.,-0.0458045,-1.0
 32391,0.,0.,0.,-0.1706705,0.0128198,0.0009163,0.,0.0774312,0.0314554,0
 .,0.,0.,0.1635371\Polar=77.0133496,26.5662554,62.4878122,0.,0.,17.0126
 262\HyperPolar=98.9216619,47.8574993,20.667297,94.55472,0.,0.,0.,-6.16
 5577,-6.8429096,0.\PG=CS [SG(C4H4Cl1F1)]\NImag=0\\0.59190621,0.1909397
 3,0.89694332,0.,0.,0.12174686,-0.26688937,-0.25000363,0.,0.77070335,-0
 .24225059,-0.50837109,0.,0.11396678,0.98363038,0.,0.,-0.07105114,0.,0.
 ,0.16735025,-0.03114555,-0.02257230,0.,-0.28730166,0.01455243,0.,0.741
 69893,-0.04496002,-0.00166991,0.,0.00942486,-0.12246894,0.,0.11269616,
 0.96765767,0.,0.,0.01085305,0.,0.,-0.08000999,0.,0.,0.17135409,-0.0020
 5806,0.00490084,0.,-0.01632339,0.03249722,0.,-0.14004792,0.13006585,0.
 ,0.14798099,0.00007422,-0.00015301,0.,-0.00370596,0.00479339,0.,0.1288
 5360,-0.30854209,0.,-0.13639766,0.32884870,0.,0.,-0.00036118,0.,0.,0.0
 0492074,0.,0.,-0.05432161,0.,0.,0.03383128,-0.00358463,0.00896755,0.,-
 0.03469116,-0.04837544,0.,-0.27144104,-0.22242079,0.,0.01350116,0.0180
 3103,0.,0.81406881,0.00764062,0.00341006,0.,-0.01165587,-0.00015445,0.
 ,-0.22055342,-0.51790264,0.,-0.02247644,-0.02366431,0.,0.11945220,0.91
 864723,0.,0.,0.00100514,0.,0.,0.01002727,0.,0.,-0.07422288,0.,0.,0.010
 05958,0.,0.,0.15322261,0.00020501,-0.00050292,0.,0.00204121,-0.0010734
 4,0.,0.01275613,-0.02138887,0.,-0.00133321,-0.00319837,0.,-0.13509586,
 0.12735319,0.,0.13129813,0.00038546,-0.00018035,0.,0.00175974,0.001916
 74,0.,0.01998457,-0.02457357,0.,-0.00356564,-0.00258083,0.,0.11851133,
 -0.31224716,0.,-0.13220780,0.33364335,0.,0.,0.00016886,0.,0.,-0.010076
 35,0.,0.,0.00961421,0.,0.,0.01362644,0.,0.,-0.05020161,0.,0.,0.0301282
 1,-0.00045074,0.00065119,0.,0.00042126,-0.00285545,0.,-0.01264337,0.00
 588885,0.,0.00125120,-0.00033554,0.,-0.38456267,0.00082054,0.,-0.00962
 271,-0.00276952,0.,0.40532565,-0.00091280,0.00105776,0.,-0.00185255,-0
 .00507717,0.,-0.03633849,0.00449441,0.,0.00016060,0.00149779,0.,0.0100
 3825,-0.07053194,0.,0.03034076,0.00335939,0.,-0.00083733,0.06563356,0.
 ,0.,0.00001053,0.,0.,0.01404344,0.,0.,0.00953769,0.,0.,-0.00968997,0.,
 0.,-0.04877125,0.,0.,0.00571251,0.,0.,0.03028214,-0.18438421,-0.032323
 72,0.,-0.03274583,0.00685560,0.,0.00475093,-0.00431606,0.,0.00002486,0
 .00039434,0.,-0.00288835,0.00036438,0.,0.00009440,-0.00012775,0.,-0.00
 028696,-0.00054312,0.,0.25202130,-0.02115902,-0.04006246,0.,-0.0272874
 8,0.00417177,0.,0.00140146,-0.00230388,0.,-0.00047765,0.00006241,0.,-0
 .00123674,0.00029477,0.,0.00008785,-0.00001438,0.,-0.00016858,-0.00029
 390,0.,0.01687448,0.04126880,0.,0.,-0.02651085,0.,0.,0.00768408,0.,0.,
 0.00834983,0.,0.,-0.00018772,0.,0.,-0.00003771,0.,0.,0.00053302,0.,0.,
 -0.00114218,0.,0.,0.01206490,-0.11484448,0.12046328,0.,0.01048477,-0.0
 1349195,0.,-0.00276352,0.00214947,0.,0.00241035,-0.00228874,0.,0.00241
 455,-0.00176780,0.,-0.00031055,-0.00050953,0.,0.00009225,0.00019446,0.
 ,-0.03588356,0.03325153,0.,0.13905058,0.08838627,-0.32746790,0.,0.0383
 7960,-0.05108505,0.,0.00569653,0.00076743,0.,-0.00320250,-0.00088030,0
 .,-0.00226669,0.00045258,0.,0.00028824,0.00051457,0.,-0.00046130,-0.00
 022214,0.,0.01359764,-0.00423914,0.,-0.13498458,0.38473570,0.,0.,-0.04
 080299,0.,0.,0.00878153,0.,0.,-0.00695902,0.,0.,-0.00019717,0.,0.,0.00
 036248,0.,0.,-0.00005201,0.,0.,0.00032046,0.,0.,0.00431015,0.,0.,0.022
 11785,0.01124582,-0.02052002,0.,-0.14569917,0.14017483,0.,-0.01386294,
 0.03286056,0.,-0.00540598,-0.00142691,0.,0.00227919,0.00082261,0.,-0.0
 0003254,-0.00146086,0.,0.00047610,-0.00024977,0.,-0.00070258,-0.001285
 85,0.,-0.00065038,-0.00543322,0.,0.15235247,0.02185614,-0.02350643,0.,
 0.13097450,-0.30735560,0.,-0.00372053,0.00454151,0.,-0.00150462,0.0006
 1826,0.,-0.00070070,0.00169586,0.,0.00030135,0.00016224,0.,0.00006715,
 0.00008223,0.,-0.00077579,0.00111601,0.,-0.00301613,-0.00257576,0.,-0.
 14348137,0.32522168,0.,0.,0.00494172,0.,0.,-0.05166983,0.,0.,0.0058046
 3,0.,0.,0.00231961,0.,0.,-0.00144363,0.,0.,0.00054673,0.,0.,-0.0003033
 7,0.,0.,-0.00506352,0.,0.,0.01211872,0.,0.,0.03274894\\0.00029063,-0.0
 0019798,0.,0.00004487,0.00009345,0.,-0.00004788,0.00002769,0.,0.000019
 93,-0.00001734,0.,-0.00004606,-0.00005522,0.,0.00000478,0.00001452,0.,
 -0.00000449,-0.00000261,0.,-0.00017062,0.00002519,0.,-0.00007009,0.000
 10622,0.,-0.00002108,0.00000608,0.\\\@


 I DO NOT DEFINE TIME, SPACE, PLACE, AND MOTION, AS BEING WELL KNOWN TO ALL.
                                            -- NEWTON (1642-1726), PRINCIPIA
 Job cpu time:  0 days  0 hours  0 minutes 52.2 seconds.
 File lengths (MBytes):  RWF=     11 Int=      0 D2E=      0 Chk=      1 Scr=      1
 Normal termination of Gaussian 09 at Sat Oct 26 20:13:26 2024.
