 Entering Gaussian System, Link 0=g09
 Initial command:
 /u/local/G09/g09/l1.exe /tmp/marlin/22983.mallos00.local/Gau-14568.inp -scrdir=/tmp/marlin/22983.mallos00.local/
 Entering Link 1 = /u/local/G09/g09/l1.exe PID=     14570.
  
 Copyright (c) 1988,1990,1992,1993,1995,1998,2003,2009, Gaussian, Inc.
                  All Rights Reserved.
  
 This is part of the Gaussian(R) 09 program.  It is based on
 the Gaussian(R) 03 system (copyright 2003, Gaussian, Inc.),
 the Gaussian(R) 98 system (copyright 1998, Gaussian, Inc.),
 the Gaussian(R) 94 system (copyright 1995, Gaussian, Inc.),
 the Gaussian 92(TM) system (copyright 1992, Gaussian, Inc.),
 the Gaussian 90(TM) system (copyright 1990, Gaussian, Inc.),
 the Gaussian 88(TM) system (copyright 1988, Gaussian, Inc.),
 the Gaussian 86(TM) system (copyright 1986, Carnegie Mellon
 University), and the Gaussian 82(TM) system (copyright 1983,
 Carnegie Mellon University). Gaussian is a federally registered
 trademark of Gaussian, Inc.
  
 This software contains proprietary and confidential information,
 including trade secrets, belonging to Gaussian, Inc.
  
 This software is provided under written license and may be
 used, copied, transmitted, or stored only in accord with that
 written license.
  
 The following legend is applicable only to US Government
 contracts under FAR:
  
                    RESTRICTED RIGHTS LEGEND
  
 Use, reproduction and disclosure by the US Government is
 subject to restrictions as set forth in subparagraphs (a)
 and (c) of the Commercial Computer Software - Restricted
 Rights clause in FAR 52.227-19.
  
 Gaussian, Inc.
 340 Quinnipiac St., Bldg. 40, Wallingford CT 06492
  
  
 ---------------------------------------------------------------
 Warning -- This program may not be used in any manner that
 competes with the business of Gaussian, Inc. or will provide
 assistance to any competitor of Gaussian, Inc.  The licensee
 of this program is prohibited from giving any competitor of
 Gaussian, Inc. access to this program.  By using this program,
 the user acknowledges that Gaussian, Inc. is engaged in the
 business of creating and licensing software in the field of
 computational chemistry and represents and warrants to the
 licensee that it is not a competitor of Gaussian, Inc. and that
 it will not use this program in any manner prohibited above.
 ---------------------------------------------------------------
  

 Cite this work as:
 Gaussian 09, Revision A.01,
 M. J. Frisch, G. W. Trucks, H. B. Schlegel, G. E. Scuseria, 
 M. A. Robb, J. R. Cheeseman, G. Scalmani, V. Barone, B. Mennucci, 
 G. A. Petersson, H. Nakatsuji, M. Caricato, X. Li, H. P. Hratchian, 
 A. F. Izmaylov, J. Bloino, G. Zheng, J. L. Sonnenberg, M. Hada, 
 M. Ehara, K. Toyota, R. Fukuda, J. Hasegawa, M. Ishida, T. Nakajima, 
 Y. Honda, O. Kitao, H. Nakai, T. Vreven, J. A. Montgomery, Jr., 
 J. E. Peralta, F. Ogliaro, M. Bearpark, J. J. Heyd, E. Brothers, 
 K. N. Kudin, V. N. Staroverov, R. Kobayashi, J. Normand, 
 K. Raghavachari, A. Rendell, J. C. Burant, S. S. Iyengar, J. Tomasi, 
 M. Cossi, N. Rega, J. M. Millam, M. Klene, J. E. Knox, J. B. Cross, 
 V. Bakken, C. Adamo, J. Jaramillo, R. Gomperts, R. E. Stratmann, 
 O. Yazyev, A. J. Austin, R. Cammi, C. Pomelli, J. W. Ochterski, 
 R. L. Martin, K. Morokuma, V. G. Zakrzewski, G. A. Voth, 
 P. Salvador, J. J. Dannenberg, S. Dapprich, A. D. Daniels, 
 O. Farkas, J. B. Foresman, J. V. Ortiz, J. Cioslowski, 
 and D. J. Fox, Gaussian, Inc., Wallingford CT, 2009.
 
 ******************************************
 Gaussian 09:  EM64L-G09RevA.01  8-May-2009
                26-Oct-2024 
 ******************************************
 %mem=103GB
 %nproc=20
 Will use up to   20 processors via shared memory.
 %chk=5-base2.chk
 ------------------------------------------------
 # opt freq=noraman hf/6-31G(d) geom=connectivity
 ------------------------------------------------
 1/18=20,19=15,38=1,57=2/1,3;
 2/9=110,12=2,17=6,18=5,40=1/2;
 3/5=1,6=6,7=1,11=9,16=1,25=1,30=1,71=1/1,2,3;
 4//1;
 5/5=2,38=5/2;
 6/7=2,8=2,9=2,10=2,28=1/1;
 7//1,2,3,16;
 1/18=20,19=15/3(2);
 2/9=110/2;
 99//99;
 2/9=110/2;
 3/5=1,6=6,7=1,11=9,16=1,25=1,30=1,71=1/1,2,3;
 4/5=5,16=3/1;
 5/5=2,38=5/2;
 7//1,2,3,16;
 1/18=20,19=15/3(-5);
 2/9=110/2;
 6/7=2,8=2,9=2,10=2,19=2,28=1/1;
 99/9=1/99;
 -------------------
 Title Card Required
 -------------------
 Symbolic Z-matrix:
 Charge =  0 Multiplicity = 1
 C                    -2.1124   -1.70543   0. 
 C                    -1.43713  -0.53045   0. 
 C                     0.10287  -0.53045   0. 
 H                     0.63603  -1.45815   0. 
 C                     0.78511   0.6405    0. 
 H                     0.25747   1.57135   0. 
 H                     1.8551    0.63414   0. 
 F                    -1.43972  -2.8759    0. 
 Cl                   -2.31411   0.9955    0. 
 H                    -3.1824   -1.70543   0. 
 

 GradGradGradGradGradGradGradGradGradGradGradGradGradGradGradGradGradGrad
 Berny optimization.
 Initialization pass.
                           ----------------------------
                           !    Initial Parameters    !
                           ! (Angstroms and Degrees)  !
 --------------------------                            --------------------------
 ! Name  Definition              Value          Derivative Info.                !
 --------------------------------------------------------------------------------
 ! R1    R(1,2)                  1.3552         estimate D2E/DX2                !
 ! R2    R(1,8)                  1.35           estimate D2E/DX2                !
 ! R3    R(1,10)                 1.07           estimate D2E/DX2                !
 ! R4    R(2,3)                  1.54           estimate D2E/DX2                !
 ! R5    R(2,9)                  1.76           estimate D2E/DX2                !
 ! R6    R(3,4)                  1.07           estimate D2E/DX2                !
 ! R7    R(3,5)                  1.3552         estimate D2E/DX2                !
 ! R8    R(5,6)                  1.07           estimate D2E/DX2                !
 ! R9    R(5,7)                  1.07           estimate D2E/DX2                !
 ! A1    A(2,1,8)              120.2269         estimate D2E/DX2                !
 ! A2    A(2,1,10)             119.8865         estimate D2E/DX2                !
 ! A3    A(8,1,10)             119.8865         estimate D2E/DX2                !
 ! A4    A(1,2,3)              119.8865         estimate D2E/DX2                !
 ! A5    A(1,2,9)              120.2269         estimate D2E/DX2                !
 ! A6    A(3,2,9)              119.8865         estimate D2E/DX2                !
 ! A7    A(2,3,4)              119.8865         estimate D2E/DX2                !
 ! A8    A(2,3,5)              120.2269         estimate D2E/DX2                !
 ! A9    A(4,3,5)              119.8865         estimate D2E/DX2                !
 ! A10   A(3,5,6)              120.2269         estimate D2E/DX2                !
 ! A11   A(3,5,7)              119.8865         estimate D2E/DX2                !
 ! A12   A(6,5,7)              119.8865         estimate D2E/DX2                !
 ! D1    D(8,1,2,3)              0.0            estimate D2E/DX2                !
 ! D2    D(8,1,2,9)            180.0            estimate D2E/DX2                !
 ! D3    D(10,1,2,3)           180.0            estimate D2E/DX2                !
 ! D4    D(10,1,2,9)             0.0            estimate D2E/DX2                !
 ! D5    D(1,2,3,4)              0.0            estimate D2E/DX2                !
 ! D6    D(1,2,3,5)            180.0            estimate D2E/DX2                !
 ! D7    D(9,2,3,4)            180.0            estimate D2E/DX2                !
 ! D8    D(9,2,3,5)              0.0            estimate D2E/DX2                !
 ! D9    D(2,3,5,6)              0.0            estimate D2E/DX2                !
 ! D10   D(2,3,5,7)            180.0            estimate D2E/DX2                !
 ! D11   D(4,3,5,6)            180.0            estimate D2E/DX2                !
 ! D12   D(4,3,5,7)              0.0            estimate D2E/DX2                !
 --------------------------------------------------------------------------------
 Trust Radius=3.00D-01 FncErr=1.00D-07 GrdErr=1.00D-07
 Number of steps in this run=  43 maximum allowed number of steps= 100.
 GradGradGradGradGradGradGradGradGradGradGradGradGradGradGradGradGradGrad

                          Input orientation:                          
 ---------------------------------------------------------------------
 Center     Atomic      Atomic             Coordinates (Angstroms)
 Number     Number       Type             X           Y           Z
 ---------------------------------------------------------------------
      1          6           0       -2.112403   -1.705426    0.000000
      2          6           0       -1.437129   -0.530449    0.000000
      3          6           0        0.102871   -0.530449    0.000000
      4          1           0        0.636035   -1.458154    0.000000
      5          6           0        0.785114    0.640495    0.000000
      6          1           0        0.257472    1.571352    0.000000
      7          1           0        1.855096    0.634138    0.000000
      8          9           0       -1.439720   -2.875895    0.000000
      9         17           0       -2.314109    0.995496    0.000000
     10          1           0       -3.182403   -1.705426    0.000000
 ---------------------------------------------------------------------
                    Distance matrix (angstroms):
                    1          2          3          4          5
     1  C    0.000000
     2  C    1.355200   0.000000
     3  C    2.507591   1.540000   0.000000
     4  H    2.759539   2.271265   1.070000   0.000000
     5  C    3.728131   2.511867   1.355200   2.103938   0.000000
     6  H    4.043956   2.699859   2.107479   3.053066   1.070000
     7  H    4.605932   3.492135   2.103938   2.421527   1.070000
     8  F    1.350000   2.345448   2.807259   2.513712   4.161117
     9  Cl   2.708443   1.760000   2.858373   3.837153   3.119488
    10  H    1.070000   2.103938   3.489068   3.826436   4.609181
                    6          7          8          9         10
     6  H    0.000000
     7  H    1.852234   0.000000
     8  F    4.760091   4.814161   0.000000
     9  Cl   2.635268   4.184835   3.968907   0.000000
    10  H    4.750791   5.554274   2.099272   2.837061   0.000000
 Stoichiometry    C4H4ClF
 Framework group  CS[SG(C4H4ClF)]
 Deg. of freedom    17
 Full point group                 CS      NOp   2
 Largest Abelian subgroup         CS      NOp   2
 Largest concise Abelian subgroup C1      NOp   1
                         Standard orientation:                         
 ---------------------------------------------------------------------
 Center     Atomic      Atomic             Coordinates (Angstroms)
 Number     Number       Type             X           Y           Z
 ---------------------------------------------------------------------
      1          6           0       -1.369017   -0.695955    0.000000
      2          6           0       -0.198072   -0.013712    0.000000
      3          6           0        1.137129   -0.781069    0.000000
      4          1           0        1.137129   -1.851069    0.000000
      5          6           0        2.312107   -0.105794    0.000000
      6          1           0        2.318464    0.964187    0.000000
      7          1           0        3.236627   -0.644461    0.000000
      8          9           0       -1.369017   -2.045955    0.000000
      9         17           0       -0.198072    1.746289    0.000000
     10          1           0       -2.296722   -0.162791    0.000000
 ---------------------------------------------------------------------
 Rotational constants (GHZ):      3.6094964      2.2351042      1.3803510
 Standard basis: 6-31G(d) (6D, 7F)
 There are    77 symmetry adapted basis functions of A'  symmetry.
 There are    25 symmetry adapted basis functions of A"  symmetry.
 Integral buffers will be    131072 words long.
 Raffenetti 1 integral format.
 Two-electron integral symmetry is turned on.
   102 basis functions,   208 primitive gaussians,   102 cartesian basis functions
    27 alpha electrons       27 beta electrons
       nuclear repulsion energy       262.2206758704 Hartrees.
 NAtoms=   10 NActive=   10 NUniq=   10 SFac= 7.50D-01 NAtFMM=   80 NAOKFM=F Big=F
 One-electron integrals computed using PRISM.
 NBasis=   102 RedAO= T  NBF=    77    25
 NBsUse=   102 1.00D-06 NBFU=    77    25
 Harris functional with IExCor=  205 diagonalized for initial guess.
 ExpMin= 1.43D-01 ExpMax= 2.52D+04 ExpMxC= 3.78D+03 IAcc=1 IRadAn=         1 AccDes= 0.00D+00
 HarFok:  IExCor=  205 AccDes= 0.00D+00 IRadAn=         1 IDoV= 1
 ScaDFX=  1.000000  1.000000  1.000000  1.000000
 FoFCou: FMM=F IPFlag=           0 FMFlag=      100000 FMFlg1=           0
         NFxFlg=           0 DoJE=T BraDBF=F KetDBF=T FulRan=T
         Omega=  0.000000  0.000000  1.000000  0.000000  0.000000 ICntrl=     500 IOpCl=  0
         NMat0=    1 NMatS0=    1 NMatT0=    0 NMatD0=    1 NMtDS0=    0 NMtDT0=    0
         I1Cent=           4 NGrid=           0.
 Petite list used in FoFCou.
 Initial guess orbital symmetries:
       Occupied  (A') (A') (A') (A') (A') (A') (A') (A') (A') (A")
                 (A') (A') (A') (A') (A') (A') (A') (A') (A') (A')
                 (A") (A') (A") (A') (A") (A') (A")
       Virtual   (A") (A') (A") (A') (A') (A') (A') (A') (A') (A')
                 (A') (A') (A') (A") (A') (A') (A') (A") (A") (A')
                 (A') (A') (A") (A") (A') (A') (A') (A') (A') (A")
                 (A') (A") (A') (A') (A') (A') (A') (A') (A") (A')
                 (A") (A') (A") (A') (A') (A") (A") (A") (A') (A')
                 (A') (A") (A') (A') (A') (A") (A') (A') (A') (A')
                 (A") (A") (A') (A") (A') (A') (A') (A') (A') (A')
                 (A') (A') (A') (A') (A')
 The electronic state of the initial guess is 1-A'.
 Requested convergence on RMS density matrix=1.00D-08 within 128 cycles.
 Requested convergence on MAX density matrix=1.00D-06.
 Requested convergence on             energy=1.00D-06.
 No special actions if energy rises.
 Keep R1 ints in memory in canonical form, NReq=14671843.
 SCF Done:  E(RHF) =  -712.651587907     A.U. after   13 cycles
             Convg  =    0.6875D-08             -V/T =  2.0014

 **********************************************************************

            Population analysis using the SCF density.

 **********************************************************************

 Orbital symmetries:
       Occupied  (A') (A') (A') (A') (A') (A') (A') (A') (A') (A")
                 (A') (A') (A') (A') (A') (A') (A') (A') (A") (A')
                 (A') (A') (A") (A') (A') (A") (A")
       Virtual   (A") (A') (A") (A') (A') (A') (A') (A') (A') (A')
                 (A') (A') (A") (A') (A') (A') (A') (A") (A") (A')
                 (A') (A") (A") (A') (A') (A') (A') (A') (A") (A')
                 (A') (A") (A') (A') (A') (A') (A') (A') (A') (A")
                 (A") (A') (A') (A") (A') (A") (A") (A") (A') (A')
                 (A") (A') (A') (A') (A') (A") (A') (A') (A') (A')
                 (A") (A") (A') (A") (A') (A') (A') (A') (A') (A')
                 (A') (A') (A') (A') (A')
 The electronic state is 1-A'.
 Alpha  occ. eigenvalues -- -104.84369 -26.33015 -11.34580 -11.32236 -11.26272
 Alpha  occ. eigenvalues --  -11.24004 -10.57631  -8.04572  -8.04237  -8.04222
 Alpha  occ. eigenvalues --   -1.63439  -1.17114  -1.05323  -1.01077  -0.84933
 Alpha  occ. eigenvalues --   -0.76806  -0.73656  -0.70478  -0.69942  -0.61900
 Alpha  occ. eigenvalues --   -0.59560  -0.56920  -0.52391  -0.52384  -0.46693
 Alpha  occ. eigenvalues --   -0.41558  -0.33254
 Alpha virt. eigenvalues --    0.11361   0.18745   0.23010   0.27012   0.27906
 Alpha virt. eigenvalues --    0.29827   0.31565   0.36981   0.43331   0.48426
 Alpha virt. eigenvalues --    0.52040   0.57912   0.62506   0.63376   0.66181
 Alpha virt. eigenvalues --    0.71874   0.73566   0.75088   0.78520   0.79508
 Alpha virt. eigenvalues --    0.84018   0.88060   0.89581   0.91575   0.99462
 Alpha virt. eigenvalues --    1.07662   1.09119   1.12039   1.13582   1.13834
 Alpha virt. eigenvalues --    1.14979   1.16823   1.21123   1.24642   1.25548
 Alpha virt. eigenvalues --    1.32863   1.35412   1.39188   1.49398   1.50258
 Alpha virt. eigenvalues --    1.60685   1.60742   1.63776   1.69869   1.73377
 Alpha virt. eigenvalues --    1.77143   1.83495   1.99368   1.99420   2.06242
 Alpha virt. eigenvalues --    2.11632   2.11865   2.23217   2.26487   2.32419
 Alpha virt. eigenvalues --    2.38629   2.38914   2.41423   2.54584   2.56778
 Alpha virt. eigenvalues --    2.57813   2.70720   2.82080   2.85161   2.93952
 Alpha virt. eigenvalues --    3.08980   3.17581   3.29013   3.43843   4.41922
 Alpha virt. eigenvalues --    4.52785   4.60236   4.69717   4.86605   4.94047
          Condensed to atoms (all electrons):
              1          2          3          4          5          6
     1  C    4.632546   0.597971  -0.053617  -0.000657   0.001403   0.000085
     2  C    0.597971   5.263301   0.338463  -0.030455  -0.055123  -0.005226
     3  C   -0.053617   0.338463   4.957712   0.394344   0.623608  -0.038501
     4  H   -0.000657  -0.030455   0.394344   0.432241  -0.031398   0.002421
     5  C    0.001403  -0.055123   0.623608  -0.031398   5.063853   0.397540
     6  H    0.000085  -0.005226  -0.038501   0.002421   0.397540   0.456525
     7  H   -0.000046   0.002962  -0.036321  -0.002070   0.392705  -0.022001
     8  F    0.256661  -0.047012   0.006287   0.002698   0.000428  -0.000001
     9  Cl  -0.061245   0.210891  -0.052537   0.000984  -0.000218  -0.002449
    10  H    0.393604  -0.067240   0.003739   0.000099  -0.000033  -0.000001
              7          8          9         10
     1  C   -0.000046   0.256661  -0.061245   0.393604
     2  C    0.002962  -0.047012   0.210891  -0.067240
     3  C   -0.036321   0.006287  -0.052537   0.003739
     4  H   -0.002070   0.002698   0.000984   0.000099
     5  C    0.392705   0.000428  -0.000218  -0.000033
     6  H   -0.022001  -0.000001  -0.002449  -0.000001
     7  H    0.471017  -0.000002   0.000258   0.000001
     8  F   -0.000002   9.167111   0.000994  -0.025242
     9  Cl   0.000258   0.000994  16.886433   0.004040
    10  H    0.000001  -0.025242   0.004040   0.467676
 Mulliken atomic charges:
              1
     1  C    0.233295
     2  C   -0.208533
     3  C   -0.143179
     4  H    0.231791
     5  C   -0.392765
     6  H    0.211608
     7  H    0.193497
     8  F   -0.361921
     9  Cl   0.012849
    10  H    0.223357
 Sum of Mulliken atomic charges =   0.00000
 Mulliken charges with hydrogens summed into heavy atoms:
              1
     1  C    0.456653
     2  C   -0.208533
     3  C    0.088612
     5  C    0.012340
     8  F   -0.361921
     9  Cl   0.012849
 Sum of Mulliken charges with hydrogens summed into heavy atoms =   0.00000
 Electronic spatial extent (au):  <R**2>=            778.0610
 Charge=              0.0000 electrons
 Dipole moment (field-independent basis, Debye):
    X=              0.1590    Y=             -0.0849    Z=              0.0000  Tot=              0.1803
 Quadrupole moment (field-independent basis, Debye-Ang):
   XX=            -35.8958   YY=            -43.3240   ZZ=            -44.0465
   XY=             -1.7370   XZ=              0.0000   YZ=              0.0000
 Traceless Quadrupole moment (field-independent basis, Debye-Ang):
   XX=              5.1930   YY=             -2.2353   ZZ=             -2.9578
   XY=             -1.7370   XZ=              0.0000   YZ=              0.0000
 Octapole moment (field-independent basis, Debye-Ang**2):
  XXX=            -10.0626  YYY=             -2.4143  ZZZ=              0.0000  XYY=              4.4181
  XXY=             -2.6028  XXZ=              0.0000  XZZ=             -6.6639  YZZ=             -3.0134
  YYZ=              0.0000  XYZ=              0.0000
 Hexadecapole moment (field-independent basis, Debye-Ang**3):
 XXXX=           -402.3790 YYYY=           -431.4102 ZZZZ=            -45.3154 XXXY=            -27.8763
 XXXZ=              0.0000 YYYX=            -34.2439 YYYZ=              0.0000 ZZZX=              0.0000
 ZZZY=              0.0000 XXYY=           -151.7028 XXZZ=            -90.9962 YYZZ=            -83.5781
 XXYZ=              0.0000 YYXZ=              0.0000 ZZXY=             -5.1925
 N-N= 2.622206758704D+02 E-N=-2.213966814915D+03  KE= 7.116735506813D+02
 Symmetry A'   KE= 6.554154685072D+02
 Symmetry A"   KE= 5.625808217402D+01
 Calling FoFJK, ICntrl=      2127 FMM=F ISym2X=1 I1Cent= 0 IOpClX= 0 NMat=1 NMatS=1 NMatT=0.
 ***** Axes restored to original set *****
 -------------------------------------------------------------------
 Center     Atomic                   Forces (Hartrees/Bohr)
 Number     Number              X              Y              Z
 -------------------------------------------------------------------
      1        6           0.029499151    0.045905451    0.000000000
      2        6           0.024477341   -0.052106011    0.000000000
      3        6          -0.017137474    0.061932185    0.000000000
      4        1          -0.007477809   -0.005462062    0.000000000
      5        6          -0.022367743   -0.043964088    0.000000000
      6        1           0.004585058    0.003772207    0.000000000
      7        1           0.002971432    0.002919400    0.000000000
      8        9          -0.020284498    0.021400836    0.000000000
      9       17           0.006027516   -0.017316398    0.000000000
     10        1          -0.000292974   -0.017081519    0.000000000
 -------------------------------------------------------------------
 Cartesian Forces:  Max     0.061932185 RMS     0.021977260

 GradGradGradGradGradGradGradGradGradGradGradGradGradGradGradGradGradGrad
 Berny optimization.
 Internal  Forces:  Max     0.047991103 RMS     0.015978927
 Search for a local minimum.
 Step number   1 out of a maximum of   43
 All quantities printed in internal units (Hartrees-Bohrs-Radians)
 Mixed Optimization -- RFO/linear search
 Second derivative matrix not updated -- first step.
     Eigenvalues ---    0.00237   0.01459   0.01463   0.02681   0.02681
     Eigenvalues ---    0.02681   0.02681   0.16000   0.16000   0.16000
     Eigenvalues ---    0.16000   0.22000   0.22000   0.25000   0.25000
     Eigenvalues ---    0.28519   0.29539   0.37230   0.37230   0.37230
     Eigenvalues ---    0.37230   0.53930   0.53930   0.550211000.00000
     Eigenvalues --- 1000.000001000.000001000.000001000.000001000.00000
     Eigenvalues --- 1000.000001000.000001000.00000
 RFO step:  Lambda=-2.29471498D-02 EMin= 2.36824121D-03
 Linear search not attempted -- first point.
 Iteration  1 RMS(Cart)=  0.06140826 RMS(Int)=  0.00198386
 Iteration  2 RMS(Cart)=  0.00305031 RMS(Int)=  0.00000116
 Iteration  3 RMS(Cart)=  0.00000129 RMS(Int)=  0.00000000
 Iteration  4 RMS(Cart)=  0.00000000 RMS(Int)=  0.00000000
 ClnCor:  largest displacement from symmetrization is 9.93D-16 for atom     8.
 Variable       Old X    -DE/DX   Delta X   Delta X   Delta X     New X
                                 (Linear)    (Quad)   (Total)
    R1        2.56096  -0.04799   0.00000  -0.08536  -0.08536   2.47560
    R2        2.55113  -0.02866   0.00000  -0.05001  -0.05001   2.50112
    R3        2.02201   0.00029   0.00000   0.00074   0.00074   2.02275
    R4        2.91018  -0.03943   0.00000  -0.12795  -0.12795   2.78223
    R5        3.32592  -0.01802   0.00000  -0.05660  -0.05660   3.26932
    R6        2.02201   0.00101   0.00000   0.00255   0.00255   2.02456
    R7        2.56096  -0.03966   0.00000  -0.07054  -0.07054   2.49042
    R8        2.02201   0.00102   0.00000   0.00258   0.00258   2.02459
    R9        2.02201   0.00295   0.00000   0.00747   0.00747   2.02948
    A1        2.09836   0.00026   0.00000   0.00108   0.00108   2.09943
    A2        2.09241   0.01714   0.00000   0.09386   0.09386   2.18627
    A3        2.09241  -0.01740   0.00000  -0.09493  -0.09493   1.99748
    A4        2.09241   0.01450   0.00000   0.05311   0.05311   2.14553
    A5        2.09836  -0.01291   0.00000  -0.04729  -0.04729   2.05107
    A6        2.09241  -0.00159   0.00000  -0.00583  -0.00583   2.08659
    A7        2.09241  -0.01946   0.00000  -0.09268  -0.09268   1.99973
    A8        2.09836   0.02032   0.00000   0.08362   0.08362   2.18198
    A9        2.09241  -0.00085   0.00000   0.00906   0.00906   2.10147
   A10        2.09836   0.00590   0.00000   0.03228   0.03228   2.13063
   A11        2.09241   0.00002   0.00000   0.00009   0.00009   2.09251
   A12        2.09241  -0.00592   0.00000  -0.03237  -0.03237   2.06005
    D1        0.00000   0.00000   0.00000   0.00000   0.00000   0.00000
    D2        3.14159   0.00000   0.00000   0.00000   0.00000   3.14159
    D3        3.14159   0.00000   0.00000   0.00000   0.00000   3.14159
    D4        0.00000   0.00000   0.00000   0.00000   0.00000   0.00000
    D5        0.00000   0.00000   0.00000   0.00000   0.00000   0.00000
    D6        3.14159   0.00000   0.00000   0.00000   0.00000   3.14159
    D7        3.14159   0.00000   0.00000   0.00000   0.00000   3.14159
    D8        0.00000   0.00000   0.00000   0.00000   0.00000   0.00000
    D9        0.00000   0.00000   0.00000   0.00000   0.00000   0.00000
   D10        3.14159   0.00000   0.00000   0.00000   0.00000   3.14159
   D11        3.14159   0.00000   0.00000   0.00000   0.00000   3.14159
   D12        0.00000   0.00000   0.00000   0.00000   0.00000   0.00000
         Item               Value     Threshold  Converged?
 Maximum Force            0.047991     0.000450     NO 
 RMS     Force            0.015979     0.000300     NO 
 Maximum Displacement     0.171528     0.001800     NO 
 RMS     Displacement     0.061925     0.001200     NO 
 Predicted change in Energy=-1.233496D-02
 GradGradGradGradGradGradGradGradGradGradGradGradGradGradGradGradGradGrad

                          Input orientation:                          
 ---------------------------------------------------------------------
 Center     Atomic      Atomic             Coordinates (Angstroms)
 Number     Number       Type             X           Y           Z
 ---------------------------------------------------------------------
      1          6           0       -2.077562   -1.666669    0.000000
      2          6           0       -1.410336   -0.539286    0.000000
      3          6           0        0.060758   -0.479913    0.000000
      4          1           0        0.545266   -1.435448    0.000000
      5          6           0        0.772861    0.629002    0.000000
      6          1           0        0.316413    1.598270    0.000000
      7          1           0        1.845520    0.576254    0.000000
      8          9           0       -1.434026   -2.823221    0.000000
      9         17           0       -2.323634    0.930054    0.000000
     10          1           0       -3.144438   -1.753362    0.000000
 ---------------------------------------------------------------------
                    Distance matrix (angstroms):
                    1          2          3          4          5
     1  C    0.000000
     2  C    1.310031   0.000000
     3  C    2.445567   1.472291   0.000000
     4  H    2.633000   2.151159   1.071352   0.000000
     5  C    3.659920   2.476135   1.317871   2.076958   0.000000
     6  H    4.048573   2.747874   2.093850   3.042338   1.071367
     7  H    4.518991   3.441661   2.073853   2.395330   1.073955
     8  F    1.323537   2.284057   2.779472   2.417335   4.097340
     9  Cl   2.608356   1.730050   2.770078   3.718358   3.111095
    10  H    1.070392   2.116858   3.448905   3.703374   4.584854
                    6          7          8          9         10
     6  H    0.000000
     7  H    1.839208   0.000000
     8  F    4.755378   4.723542   0.000000
     9  Cl   2.723299   4.184139   3.857262   0.000000
    10  H    4.817772   5.506976   2.017451   2.806143   0.000000
 Stoichiometry    C4H4ClF
 Framework group  CS[SG(C4H4ClF)]
 Deg. of freedom    17
 Full point group                 CS      NOp   2
 Largest Abelian subgroup         CS      NOp   2
 Largest concise Abelian subgroup C1      NOp   1
                         Standard orientation:                         
 ---------------------------------------------------------------------
 Center     Atomic      Atomic             Coordinates (Angstroms)
 Number     Number       Type             X           Y           Z
 ---------------------------------------------------------------------
      1          6           0       -0.437759    1.412942    0.000000
      2          6           0        0.000000    0.178215    0.000000
      3          6           0       -0.897268   -0.989068    0.000000
      4          1           0       -1.941277   -0.748568    0.000000
      5          6           0       -0.502448   -2.246407    0.000000
      6          1           0        0.534119   -2.517249    0.000000
      7          1           0       -1.230419   -3.035987    0.000000
      8          9           0       -1.737994    1.660205    0.000000
      9         17           0        1.713230   -0.062446    0.000000
     10          1           0        0.179470    2.287452    0.000000
 ---------------------------------------------------------------------
 Rotational constants (GHZ):      3.6752498      2.3676376      1.4399837
 Standard basis: 6-31G(d) (6D, 7F)
 There are    77 symmetry adapted basis functions of A'  symmetry.
 There are    25 symmetry adapted basis functions of A"  symmetry.
 Integral buffers will be    131072 words long.
 Raffenetti 1 integral format.
 Two-electron integral symmetry is turned on.
   102 basis functions,   208 primitive gaussians,   102 cartesian basis functions
    27 alpha electrons       27 beta electrons
       nuclear repulsion energy       267.9353141977 Hartrees.
 NAtoms=   10 NActive=   10 NUniq=   10 SFac= 7.50D-01 NAtFMM=   80 NAOKFM=F Big=F
 One-electron integrals computed using PRISM.
 NBasis=   102 RedAO= T  NBF=    77    25
 NBsUse=   102 1.00D-06 NBFU=    77    25
 Initial guess read from the read-write file.
 B after Tr=     0.000000    0.000000    0.000000
         Rot=    1.000000    0.000000    0.000000    0.000000 Ang=   0.00 deg.
 Initial guess orbital symmetries:
       Occupied  (A') (A') (A') (A') (A') (A') (A') (A') (A') (A")
                 (A') (A') (A') (A') (A') (A') (A') (A') (A") (A')
                 (A') (A') (A") (A') (A') (A") (A")
       Virtual   (A") (A') (A") (A') (A') (A') (A') (A') (A') (A')
                 (A') (A') (A") (A') (A') (A') (A') (A") (A") (A')
                 (A') (A") (A") (A') (A') (A') (A') (A') (A") (A')
                 (A') (A") (A') (A') (A') (A') (A') (A') (A') (A")
                 (A") (A') (A') (A") (A') (A") (A") (A") (A') (A')
                 (A") (A') (A') (A') (A') (A") (A') (A') (A') (A')
                 (A") (A") (A') (A") (A') (A') (A') (A') (A') (A')
                 (A') (A') (A') (A') (A')
 Harris functional with IExCor=  205 diagonalized for initial guess.
 ExpMin= 1.43D-01 ExpMax= 2.52D+04 ExpMxC= 3.78D+03 IAcc=1 IRadAn=         1 AccDes= 0.00D+00
 HarFok:  IExCor=  205 AccDes= 0.00D+00 IRadAn=         1 IDoV= 1
 ScaDFX=  1.000000  1.000000  1.000000  1.000000
 FoFCou: FMM=F IPFlag=           0 FMFlag=      100000 FMFlg1=           0
         NFxFlg=           0 DoJE=T BraDBF=F KetDBF=T FulRan=T
         Omega=  0.000000  0.000000  1.000000  0.000000  0.000000 ICntrl=     500 IOpCl=  0
         NMat0=    1 NMatS0=    1 NMatT0=    0 NMatD0=    1 NMtDS0=    0 NMtDT0=    0
         I1Cent=           4 NGrid=           0.
 Petite list used in FoFCou.
 Requested convergence on RMS density matrix=1.00D-08 within 128 cycles.
 Requested convergence on MAX density matrix=1.00D-06.
 Requested convergence on             energy=1.00D-06.
 No special actions if energy rises.
 Keep R1 ints in memory in canonical form, NReq=14671843.
 SCF Done:  E(RHF) =  -712.663345600     A.U. after   14 cycles
             Convg  =    0.6283D-08             -V/T =  2.0006
 Calling FoFJK, ICntrl=      2127 FMM=F ISym2X=1 I1Cent= 0 IOpClX= 0 NMat=1 NMatS=1 NMatT=0.
 ***** Axes restored to original set *****
 -------------------------------------------------------------------
 Center     Atomic                   Forces (Hartrees/Bohr)
 Number     Number              X              Y              Z
 -------------------------------------------------------------------
      1        6          -0.005225274   -0.003052601    0.000000000
      2        6           0.010229321    0.000764768    0.000000000
      3        6          -0.005782539    0.003524954    0.000000000
      4        1           0.000284558   -0.001977302    0.000000000
      5        6           0.002775192   -0.001085345    0.000000000
      6        1           0.001473537    0.002083304    0.000000000
      7        1           0.000286865    0.001842958    0.000000000
      8        9          -0.001518614   -0.004718524    0.000000000
      9       17          -0.003041298    0.005140188    0.000000000
     10        1           0.000518253   -0.002522399    0.000000000
 -------------------------------------------------------------------
 Cartesian Forces:  Max     0.010229321 RMS     0.003041064

 GradGradGradGradGradGradGradGradGradGradGradGradGradGradGradGradGradGrad
 Berny optimization.
 Using GEDIIS/GDIIS optimizer.
 Internal  Forces:  Max     0.012029212 RMS     0.003119281
 Search for a local minimum.
 Step number   2 out of a maximum of   43
 All quantities printed in internal units (Hartrees-Bohrs-Radians)
 Mixed Optimization -- RFO/linear search
 Update second derivatives using D2CorX and points    1    2
 DE= -1.18D-02 DEPred=-1.23D-02 R= 9.53D-01
 SS=  1.41D+00  RLast= 2.74D-01 DXNew= 5.0454D-01 8.2200D-01
 Trust test= 9.53D-01 RLast= 2.74D-01 DXMaxT set to 5.05D-01
 Use linear search instead of GDIIS.
     Eigenvalues ---    0.00237   0.01435   0.01524   0.02681   0.02681
     Eigenvalues ---    0.02681   0.02681   0.15243   0.16000   0.16000
     Eigenvalues ---    0.16101   0.20899   0.22175   0.24714   0.25032
     Eigenvalues ---    0.28321   0.30779   0.37203   0.37230   0.37230
     Eigenvalues ---    0.37250   0.53784   0.54840   0.630681000.00000
     Eigenvalues --- 1000.000001000.000001000.000001000.000001000.00000
     Eigenvalues --- 1000.000001000.000001000.00000
 RFO step:  Lambda=-9.41581173D-04 EMin= 2.36824121D-03
 Quartic linear search produced a step of -0.00954.
 Iteration  1 RMS(Cart)=  0.02218548 RMS(Int)=  0.00014376
 Iteration  2 RMS(Cart)=  0.00015292 RMS(Int)=  0.00000000
 Iteration  3 RMS(Cart)=  0.00000000 RMS(Int)=  0.00000000
 ClnCor:  largest displacement from symmetrization is 1.11D-15 for atom     7.
 Variable       Old X    -DE/DX   Delta X   Delta X   Delta X     New X
                                 (Linear)    (Quad)   (Total)
    R1        2.47560   0.01203   0.00081   0.01810   0.01892   2.49452
    R2        2.50112   0.00338   0.00048   0.00377   0.00425   2.50537
    R3        2.02275  -0.00031  -0.00001  -0.00079  -0.00080   2.02195
    R4        2.78223  -0.00078   0.00122  -0.00873  -0.00751   2.77472
    R5        3.26932   0.00597   0.00054   0.01729   0.01783   3.28716
    R6        2.02456   0.00189  -0.00002   0.00514   0.00511   2.02968
    R7        2.49042   0.00484   0.00067   0.00561   0.00629   2.49670
    R8        2.02459   0.00126  -0.00002   0.00345   0.00343   2.02802
    R9        2.02948   0.00020  -0.00007   0.00087   0.00080   2.03028
    A1        2.09943   0.00431  -0.00001   0.01939   0.01938   2.11881
    A2        2.18627   0.00043  -0.00090   0.01078   0.00988   2.19615
    A3        1.99748  -0.00474   0.00091  -0.03016  -0.02926   1.96822
    A4        2.14553   0.00292  -0.00051   0.01404   0.01354   2.15907
    A5        2.05107  -0.00125   0.00045  -0.00716  -0.00671   2.04436
    A6        2.08659  -0.00167   0.00006  -0.00688  -0.00683   2.07976
    A7        1.99973  -0.00300   0.00088  -0.01898  -0.01810   1.98163
    A8        2.18198   0.00471  -0.00080   0.02507   0.02427   2.20625
    A9        2.10147  -0.00171  -0.00009  -0.00609  -0.00617   2.09530
   A10        2.13063   0.00174  -0.00031   0.01228   0.01197   2.14261
   A11        2.09251   0.00101   0.00000   0.00622   0.00622   2.09873
   A12        2.06005  -0.00275   0.00031  -0.01850  -0.01820   2.04185
    D1        0.00000   0.00000   0.00000   0.00000   0.00000   0.00000
    D2        3.14159   0.00000   0.00000   0.00000   0.00000   3.14159
    D3        3.14159   0.00000   0.00000   0.00000   0.00000   3.14159
    D4        0.00000   0.00000   0.00000   0.00000   0.00000   0.00000
    D5        0.00000   0.00000   0.00000   0.00000   0.00000   0.00000
    D6        3.14159   0.00000   0.00000   0.00000   0.00000   3.14159
    D7        3.14159   0.00000   0.00000   0.00000   0.00000   3.14159
    D8        0.00000   0.00000   0.00000   0.00000   0.00000   0.00000
    D9        0.00000   0.00000   0.00000   0.00000   0.00000   0.00000
   D10        3.14159   0.00000   0.00000   0.00000   0.00000   3.14159
   D11        3.14159   0.00000   0.00000   0.00000   0.00000   3.14159
   D12        0.00000   0.00000   0.00000   0.00000   0.00000   0.00000
         Item               Value     Threshold  Converged?
 Maximum Force            0.012029     0.000450     NO 
 RMS     Force            0.003119     0.000300     NO 
 Maximum Displacement     0.063572     0.001800     NO 
 RMS     Displacement     0.022137     0.001200     NO 
 Predicted change in Energy=-4.715213D-04
 GradGradGradGradGradGradGradGradGradGradGradGradGradGradGradGradGradGrad

                          Input orientation:                          
 ---------------------------------------------------------------------
 Center     Atomic      Atomic             Coordinates (Angstroms)
 Number     Number       Type             X           Y           Z
 ---------------------------------------------------------------------
      1          6           0       -2.082202   -1.677734    0.000000
      2          6           0       -1.408842   -0.542349    0.000000
      3          6           0        0.057416   -0.464617    0.000000
      4          1           0        0.537899   -1.425210    0.000000
      5          6           0        0.784217    0.638708    0.000000
      6          1           0        0.350054    1.620147    0.000000
      7          1           0        1.856995    0.580120    0.000000
      8          9           0       -1.461207   -2.849090    0.000000
      9         17           0       -2.335671    0.929658    0.000000
     10          1           0       -3.147835   -1.773953    0.000000
 ---------------------------------------------------------------------
                    Distance matrix (angstroms):
                    1          2          3          4          5
     1  C    0.000000
     2  C    1.320043   0.000000
     3  C    2.459597   1.468318   0.000000
     4  H    2.632241   2.137579   1.074058   0.000000
     5  C    3.685412   2.490864   1.321199   2.078564   0.000000
     6  H    4.097790   2.787490   2.105202   3.051144   1.073182
     7  H    4.540394   3.453350   2.080855   2.400284   1.074377
     8  F    1.325786   2.307335   2.827000   2.454355   4.148092
     9  Cl   2.619684   1.739488   2.769634   3.715213   3.133426
    10  H    1.069968   2.130950   3.462369   3.702196   4.613238
                    6          7          8          9         10
     6  H    0.000000
     7  H    1.830991   0.000000
     8  F    4.822317   4.771787   0.000000
     9  Cl   2.773066   4.207212   3.878611   0.000000
    10  H    4.873924   5.530821   2.000158   2.822964   0.000000
 Stoichiometry    C4H4ClF
 Framework group  CS[SG(C4H4ClF)]
 Deg. of freedom    17
 Full point group                 CS      NOp   2
 Largest Abelian subgroup         CS      NOp   2
 Largest concise Abelian subgroup C1      NOp   1
                         Standard orientation:                         
 ---------------------------------------------------------------------
 Center     Atomic      Atomic             Coordinates (Angstroms)
 Number     Number       Type             X           Y           Z
 ---------------------------------------------------------------------
      1          6           0       -0.398960    1.430065    0.000000
      2          6           0        0.000000    0.171755    0.000000
      3          6           0       -0.918112   -0.974119    0.000000
      4          1           0       -1.954775   -0.693172    0.000000
      5          6           0       -0.578652   -2.250964    0.000000
      6          1           0        0.442730   -2.580352    0.000000
      7          1           0       -1.336539   -3.012471    0.000000
      8          9           0       -1.686436    1.746470    0.000000
      9         17           0        1.715423   -0.116585    0.000000
     10          1           0        0.238653    2.289298    0.000000
 ---------------------------------------------------------------------
 Rotational constants (GHZ):      3.6340168      2.3333704      1.4209749
 Standard basis: 6-31G(d) (6D, 7F)
 There are    77 symmetry adapted basis functions of A'  symmetry.
 There are    25 symmetry adapted basis functions of A"  symmetry.
 Integral buffers will be    131072 words long.
 Raffenetti 1 integral format.
 Two-electron integral symmetry is turned on.
   102 basis functions,   208 primitive gaussians,   102 cartesian basis functions
    27 alpha electrons       27 beta electrons
       nuclear repulsion energy       266.5917775290 Hartrees.
 NAtoms=   10 NActive=   10 NUniq=   10 SFac= 7.50D-01 NAtFMM=   80 NAOKFM=F Big=F
 One-electron integrals computed using PRISM.
 NBasis=   102 RedAO= T  NBF=    77    25
 NBsUse=   102 1.00D-06 NBFU=    77    25
 Initial guess read from the read-write file.
 B after Tr=     0.000000    0.000000    0.000000
         Rot=    1.000000    0.000000    0.000000    0.000000 Ang=   0.00 deg.
 Initial guess orbital symmetries:
       Occupied  (A') (A') (A') (A') (A') (A') (A') (A') (A') (A")
                 (A') (A') (A') (A') (A') (A') (A') (A') (A") (A')
                 (A') (A') (A") (A') (A') (A") (A")
       Virtual   (A") (A') (A") (A') (A') (A') (A') (A') (A') (A')
                 (A') (A') (A") (A') (A') (A') (A") (A') (A") (A')
                 (A') (A") (A") (A') (A') (A') (A') (A') (A") (A')
                 (A') (A") (A') (A') (A') (A') (A') (A') (A') (A")
                 (A") (A') (A') (A") (A') (A") (A") (A") (A') (A')
                 (A") (A') (A') (A') (A') (A") (A') (A') (A') (A")
                 (A') (A") (A') (A") (A') (A') (A') (A') (A') (A')
                 (A') (A') (A') (A') (A')
 Harris functional with IExCor=  205 diagonalized for initial guess.
 ExpMin= 1.43D-01 ExpMax= 2.52D+04 ExpMxC= 3.78D+03 IAcc=1 IRadAn=         1 AccDes= 0.00D+00
 HarFok:  IExCor=  205 AccDes= 0.00D+00 IRadAn=         1 IDoV= 1
 ScaDFX=  1.000000  1.000000  1.000000  1.000000
 FoFCou: FMM=F IPFlag=           0 FMFlag=      100000 FMFlg1=           0
         NFxFlg=           0 DoJE=T BraDBF=F KetDBF=T FulRan=T
         Omega=  0.000000  0.000000  1.000000  0.000000  0.000000 ICntrl=     500 IOpCl=  0
         NMat0=    1 NMatS0=    1 NMatT0=    0 NMatD0=    1 NMtDS0=    0 NMtDT0=    0
         I1Cent=           4 NGrid=           0.
 Petite list used in FoFCou.
 Requested convergence on RMS density matrix=1.00D-08 within 128 cycles.
 Requested convergence on MAX density matrix=1.00D-06.
 Requested convergence on             energy=1.00D-06.
 No special actions if energy rises.
 Keep R1 ints in memory in canonical form, NReq=14671843.
 SCF Done:  E(RHF) =  -712.663727305     A.U. after   11 cycles
             Convg  =    0.8760D-08             -V/T =  2.0008
 Calling FoFJK, ICntrl=      2127 FMM=F ISym2X=1 I1Cent= 0 IOpClX= 0 NMat=1 NMatS=1 NMatT=0.
 ***** Axes restored to original set *****
 -------------------------------------------------------------------
 Center     Atomic                   Forces (Hartrees/Bohr)
 Number     Number              X              Y              Z
 -------------------------------------------------------------------
      1        6          -0.000014995    0.002532037    0.000000000
      2        6          -0.000125329   -0.004313913    0.000000000
      3        6          -0.000375000    0.000581502    0.000000000
      4        1           0.000667832   -0.000301861    0.000000000
      5        6          -0.000625110   -0.001183205    0.000000000
      6        1          -0.000048199    0.000216793    0.000000000
      7        1          -0.000137434    0.000052487    0.000000000
      8        9           0.001557462    0.000188058    0.000000000
      9       17          -0.000882785    0.001103477    0.000000000
     10        1          -0.000016442    0.001124625    0.000000000
 -------------------------------------------------------------------
 Cartesian Forces:  Max     0.004313913 RMS     0.001058893

 GradGradGradGradGradGradGradGradGradGradGradGradGradGradGradGradGradGrad
 Berny optimization.
 Using GEDIIS/GDIIS optimizer.
 Internal  Forces:  Max     0.004085324 RMS     0.000939490
 Search for a local minimum.
 Step number   3 out of a maximum of   43
 All quantities printed in internal units (Hartrees-Bohrs-Radians)
 Mixed Optimization -- En-DIIS/RFO-DIIS
 Update second derivatives using D2CorX and points    1    2    3
 DE= -3.82D-04 DEPred=-4.72D-04 R= 8.10D-01
 SS=  1.41D+00  RLast= 6.25D-02 DXNew= 8.4853D-01 1.8738D-01
 Trust test= 8.10D-01 RLast= 6.25D-02 DXMaxT set to 5.05D-01
 Use linear search instead of GDIIS.
     Eigenvalues ---    0.00237   0.01436   0.01529   0.02681   0.02681
     Eigenvalues ---    0.02681   0.02681   0.15231   0.16000   0.16014
     Eigenvalues ---    0.16820   0.20534   0.23171   0.24420   0.25110
     Eigenvalues ---    0.27887   0.30540   0.37041   0.37230   0.37231
     Eigenvalues ---    0.37244   0.53956   0.55352   0.706141000.00000
     Eigenvalues --- 1000.000001000.000001000.000001000.000001000.00000
     Eigenvalues --- 1000.000001000.000001000.00000
 RFO step:  Lambda=-3.77890272D-05 EMin= 2.36824121D-03
 Quartic linear search produced a step of -0.15574.
 Iteration  1 RMS(Cart)=  0.00386997 RMS(Int)=  0.00000578
 Iteration  2 RMS(Cart)=  0.00000570 RMS(Int)=  0.00000000
 Iteration  3 RMS(Cart)=  0.00000000 RMS(Int)=  0.00000000
 ClnCor:  largest displacement from symmetrization is 4.78D-15 for atom     7.
 Variable       Old X    -DE/DX   Delta X   Delta X   Delta X     New X
                                 (Linear)    (Quad)   (Total)
    R1        2.49452  -0.00409  -0.00295  -0.00237  -0.00531   2.48921
    R2        2.50537   0.00056  -0.00066   0.00188   0.00122   2.50659
    R3        2.02195  -0.00008   0.00012  -0.00035  -0.00023   2.02172
    R4        2.77472  -0.00055   0.00117  -0.00264  -0.00147   2.77325
    R5        3.28716   0.00140  -0.00278   0.00772   0.00495   3.29210
    R6        2.02968   0.00057  -0.00080   0.00229   0.00149   2.03117
    R7        2.49670  -0.00121  -0.00098  -0.00041  -0.00138   2.49532
    R8        2.02802   0.00022  -0.00053   0.00116   0.00063   2.02865
    R9        2.03028  -0.00014  -0.00012  -0.00019  -0.00031   2.02997
    A1        2.11881  -0.00169  -0.00302  -0.00270  -0.00572   2.11309
    A2        2.19615  -0.00029  -0.00154  -0.00120  -0.00274   2.19341
    A3        1.96822   0.00198   0.00456   0.00391   0.00846   1.97669
    A4        2.15907  -0.00003  -0.00211   0.00236   0.00025   2.15931
    A5        2.04436  -0.00025   0.00104  -0.00197  -0.00093   2.04343
    A6        2.07976   0.00028   0.00106  -0.00038   0.00068   2.08044
    A7        1.98163   0.00077   0.00282   0.00046   0.00328   1.98492
    A8        2.20625  -0.00060  -0.00378   0.00211  -0.00167   2.20458
    A9        2.09530  -0.00017   0.00096  -0.00257  -0.00161   2.09369
   A10        2.14261   0.00003  -0.00186   0.00235   0.00049   2.14309
   A11        2.09873   0.00003  -0.00097   0.00137   0.00040   2.09913
   A12        2.04185  -0.00006   0.00283  -0.00372  -0.00089   2.04096
    D1        0.00000   0.00000   0.00000   0.00000   0.00000   0.00000
    D2        3.14159   0.00000   0.00000   0.00000   0.00000   3.14159
    D3        3.14159   0.00000   0.00000   0.00000   0.00000   3.14159
    D4        0.00000   0.00000   0.00000   0.00000   0.00000   0.00000
    D5        0.00000   0.00000   0.00000   0.00000   0.00000   0.00000
    D6        3.14159   0.00000   0.00000   0.00000   0.00000   3.14159
    D7        3.14159   0.00000   0.00000   0.00000   0.00000   3.14159
    D8        0.00000   0.00000   0.00000   0.00000   0.00000   0.00000
    D9        0.00000   0.00000   0.00000   0.00000   0.00000   0.00000
   D10        3.14159   0.00000   0.00000   0.00000   0.00000   3.14159
   D11        3.14159   0.00000   0.00000   0.00000   0.00000   3.14159
   D12        0.00000   0.00000   0.00000   0.00000   0.00000   0.00000
         Item               Value     Threshold  Converged?
 Maximum Force            0.004085     0.000450     NO 
 RMS     Force            0.000939     0.000300     NO 
 Maximum Displacement     0.012097     0.001800     NO 
 RMS     Displacement     0.003871     0.001200     NO 
 Predicted change in Energy=-3.200102D-05
 GradGradGradGradGradGradGradGradGradGradGradGradGradGradGradGradGradGrad

                          Input orientation:                          
 ---------------------------------------------------------------------
 Center     Atomic      Atomic             Coordinates (Angstroms)
 Number     Number       Type             X           Y           Z
 ---------------------------------------------------------------------
      1          6           0       -2.081739   -1.676220    0.000000
      2          6           0       -1.408789   -0.543861    0.000000
      3          6           0        0.056746   -0.467134    0.000000
      4          1           0        0.540103   -1.427166    0.000000
      5          6           0        0.782024    0.636316    0.000000
      6          1           0        0.347208    1.617827    0.000000
      7          1           0        1.854720    0.579259    0.000000
      8          9           0       -1.454806   -2.845138    0.000000
      9         17           0       -2.337047    0.930340    0.000000
     10          1           0       -3.147596   -1.768542    0.000000
 ---------------------------------------------------------------------
                    Distance matrix (angstroms):
                    1          2          3          4          5
     1  C    0.000000
     2  C    1.317232   0.000000
     3  C    2.456625   1.467542   0.000000
     4  H    2.633644   2.139722   1.074847   0.000000
     5  C    3.680891   2.488469   1.320466   2.077615   0.000000
     6  H    4.092741   2.785035   2.105096   3.051097   1.073513
     7  H    4.536837   3.451360   2.080300   2.398742   1.074212
     8  F    1.326430   2.301738   2.817746   2.447510   4.138107
     9  Cl   2.619033   1.742105   2.771854   3.719654   3.132899
    10  H    1.069848   2.126804   3.458536   3.703466   4.607088
                    6          7          8          9         10
     6  H    0.000000
     7  H    1.830632   0.000000
     8  F    4.813036   4.762295   0.000000
     9  Cl   2.770895   4.206443   3.877188   0.000000
    10  H    4.866328   5.525878   2.006140   2.817970   0.000000
 Stoichiometry    C4H4ClF
 Framework group  CS[SG(C4H4ClF)]
 Deg. of freedom    17
 Full point group                 CS      NOp   2
 Largest Abelian subgroup         CS      NOp   2
 Largest concise Abelian subgroup C1      NOp   1
                         Standard orientation:                         
 ---------------------------------------------------------------------
 Center     Atomic      Atomic             Coordinates (Angstroms)
 Number     Number       Type             X           Y           Z
 ---------------------------------------------------------------------
      1          6           0       -0.388286    1.431891    0.000000
      2          6           0        0.000000    0.173189    0.000000
      3          6           0       -0.926267   -0.965103    0.000000
      4          1           0       -1.962478   -0.679507    0.000000
      5          6           0       -0.594525   -2.243218    0.000000
      6          1           0        0.425050   -2.579220    0.000000
      7          1           0       -1.356464   -3.000436    0.000000
      8          9           0       -1.675723    1.751146    0.000000
      9         17           0        1.715975   -0.127409    0.000000
     10          1           0        0.258288    2.284250    0.000000
 ---------------------------------------------------------------------
 Rotational constants (GHZ):      3.6352403      2.3383911      1.4230228
 Standard basis: 6-31G(d) (6D, 7F)
 There are    77 symmetry adapted basis functions of A'  symmetry.
 There are    25 symmetry adapted basis functions of A"  symmetry.
 Integral buffers will be    131072 words long.
 Raffenetti 1 integral format.
 Two-electron integral symmetry is turned on.
   102 basis functions,   208 primitive gaussians,   102 cartesian basis functions
    27 alpha electrons       27 beta electrons
       nuclear repulsion energy       266.6963748204 Hartrees.
 NAtoms=   10 NActive=   10 NUniq=   10 SFac= 7.50D-01 NAtFMM=   80 NAOKFM=F Big=F
 One-electron integrals computed using PRISM.
 NBasis=   102 RedAO= T  NBF=    77    25
 NBsUse=   102 1.00D-06 NBFU=    77    25
 Initial guess read from the read-write file.
 B after Tr=     0.000000    0.000000    0.000000
         Rot=    1.000000    0.000000    0.000000    0.000000 Ang=   0.00 deg.
 Initial guess orbital symmetries:
       Occupied  (A') (A') (A') (A') (A') (A') (A') (A') (A') (A")
                 (A') (A') (A') (A') (A') (A') (A') (A') (A") (A')
                 (A') (A') (A") (A') (A') (A") (A")
       Virtual   (A") (A') (A") (A') (A') (A') (A') (A') (A') (A')
                 (A') (A') (A") (A') (A') (A') (A') (A") (A") (A')
                 (A') (A") (A") (A') (A') (A') (A') (A') (A") (A')
                 (A') (A") (A') (A') (A') (A') (A') (A') (A') (A")
                 (A") (A') (A') (A") (A') (A") (A") (A") (A') (A')
                 (A") (A') (A') (A') (A') (A") (A') (A') (A') (A")
                 (A') (A") (A') (A") (A') (A') (A') (A') (A') (A')
                 (A') (A') (A') (A') (A')
 Requested convergence on RMS density matrix=1.00D-08 within 128 cycles.
 Requested convergence on MAX density matrix=1.00D-06.
 Requested convergence on             energy=1.00D-06.
 No special actions if energy rises.
 Keep R1 ints in memory in canonical form, NReq=14671843.
 SCF Done:  E(RHF) =  -712.663760958     A.U. after   10 cycles
             Convg  =    0.4833D-08             -V/T =  2.0007
 Calling FoFJK, ICntrl=      2127 FMM=F ISym2X=1 I1Cent= 0 IOpClX= 0 NMat=1 NMatS=1 NMatT=0.
 ***** Axes restored to original set *****
 -------------------------------------------------------------------
 Center     Atomic                   Forces (Hartrees/Bohr)
 Number     Number              X              Y              Z
 -------------------------------------------------------------------
      1        6          -0.000466001    0.000081707    0.000000000
      2        6           0.000369232   -0.000394197    0.000000000
      3        6           0.000123288    0.000011783    0.000000000
      4        1           0.000030513    0.000151355    0.000000000
      5        6          -0.000121168   -0.000024347    0.000000000
      6        1           0.000011458   -0.000030918    0.000000000
      7        1           0.000010764    0.000011304    0.000000000
      8        9           0.000102400   -0.000017353    0.000000000
      9       17          -0.000101904    0.000180645    0.000000000
     10        1           0.000041420    0.000030020    0.000000000
 -------------------------------------------------------------------
 Cartesian Forces:  Max     0.000466001 RMS     0.000144656

 GradGradGradGradGradGradGradGradGradGradGradGradGradGradGradGradGradGrad
 Berny optimization.
 Using GEDIIS/GDIIS optimizer.
 Internal  Forces:  Max     0.000449017 RMS     0.000120325
 Search for a local minimum.
 Step number   4 out of a maximum of   43
 All quantities printed in internal units (Hartrees-Bohrs-Radians)
 Mixed Optimization -- En-DIIS/RFO-DIIS
 Swaping is turned off.
 Update second derivatives using D2CorX and points    1    2    3    4
 DE= -3.37D-05 DEPred=-3.20D-05 R= 1.05D+00
 SS=  1.41D+00  RLast= 1.38D-02 DXNew= 8.4853D-01 4.1527D-02
 Trust test= 1.05D+00 RLast= 1.38D-02 DXMaxT set to 5.05D-01
     Eigenvalues ---    0.00237   0.01435   0.01526   0.02681   0.02681
     Eigenvalues ---    0.02681   0.02681   0.15235   0.15941   0.16004
     Eigenvalues ---    0.16546   0.20633   0.21689   0.23663   0.25205
     Eigenvalues ---    0.28619   0.30085   0.37191   0.37224   0.37231
     Eigenvalues ---    0.37532   0.54008   0.55405   0.722741000.00000
     Eigenvalues --- 1000.000001000.000001000.000001000.000001000.00000
     Eigenvalues --- 1000.000001000.000001000.00000
 En-DIIS/RFO-DIIS IScMMF=        0 using points:     4    3
 RFO step:  Lambda=-9.94481642D-07.
 DIIS coeffs:      1.04714     -0.04714
 Iteration  1 RMS(Cart)=  0.00163798 RMS(Int)=  0.00000095
 Iteration  2 RMS(Cart)=  0.00000145 RMS(Int)=  0.00000000
 Iteration  3 RMS(Cart)=  0.00000000 RMS(Int)=  0.00000000
 ClnCor:  largest displacement from symmetrization is 9.16D-16 for atom     7.
 Variable       Old X    -DE/DX   Delta X   Delta X   Delta X     New X
                                  (DIIS)     (GDIIS)  (Total)
    R1        2.48921   0.00008  -0.00025   0.00028   0.00003   2.48923
    R2        2.50659   0.00006   0.00006   0.00011   0.00017   2.50675
    R3        2.02172  -0.00004  -0.00001  -0.00012  -0.00014   2.02158
    R4        2.77325   0.00006  -0.00007   0.00016   0.00009   2.77334
    R5        3.29210   0.00021   0.00023   0.00073   0.00097   3.29307
    R6        2.03117  -0.00012   0.00007  -0.00034  -0.00027   2.03090
    R7        2.49532  -0.00009  -0.00007  -0.00016  -0.00023   2.49509
    R8        2.02865  -0.00003   0.00003  -0.00009  -0.00006   2.02859
    R9        2.02997   0.00001  -0.00001   0.00004   0.00002   2.02999
    A1        2.11309  -0.00012  -0.00027  -0.00043  -0.00070   2.11239
    A2        2.19341   0.00003  -0.00013   0.00023   0.00010   2.19351
    A3        1.97669   0.00009   0.00040   0.00020   0.00060   1.97728
    A4        2.15931   0.00045   0.00001   0.00197   0.00198   2.16130
    A5        2.04343  -0.00021  -0.00004  -0.00092  -0.00096   2.04247
    A6        2.08044  -0.00024   0.00003  -0.00106  -0.00103   2.07941
    A7        1.98492   0.00019   0.00015   0.00092   0.00107   1.98599
    A8        2.20458  -0.00018  -0.00008  -0.00071  -0.00079   2.20379
    A9        2.09369  -0.00001  -0.00008  -0.00021  -0.00028   2.09341
   A10        2.14309  -0.00001   0.00002  -0.00001   0.00001   2.14310
   A11        2.09913   0.00002   0.00002   0.00014   0.00015   2.09929
   A12        2.04096  -0.00001  -0.00004  -0.00012  -0.00016   2.04080
    D1        0.00000   0.00000   0.00000   0.00000   0.00000   0.00000
    D2        3.14159   0.00000   0.00000   0.00000   0.00000   3.14159
    D3        3.14159   0.00000   0.00000   0.00000   0.00000   3.14159
    D4        0.00000   0.00000   0.00000   0.00000   0.00000   0.00000
    D5        0.00000   0.00000   0.00000   0.00000   0.00000   0.00000
    D6        3.14159   0.00000   0.00000   0.00000   0.00000   3.14159
    D7        3.14159   0.00000   0.00000   0.00000   0.00000   3.14159
    D8        0.00000   0.00000   0.00000   0.00000   0.00000   0.00000
    D9        0.00000   0.00000   0.00000   0.00000   0.00000   0.00000
   D10        3.14159   0.00000   0.00000   0.00000   0.00000   3.14159
   D11        3.14159   0.00000   0.00000   0.00000   0.00000   3.14159
   D12        0.00000   0.00000   0.00000   0.00000   0.00000   0.00000
         Item               Value     Threshold  Converged?
 Maximum Force            0.000449     0.000450     YES
 RMS     Force            0.000120     0.000300     YES
 Maximum Displacement     0.004409     0.001800     NO 
 RMS     Displacement     0.001638     0.001200     NO 
 Predicted change in Energy=-1.052253D-06
 GradGradGradGradGradGradGradGradGradGradGradGradGradGradGradGradGradGrad

                          Input orientation:                          
 ---------------------------------------------------------------------
 Center     Atomic      Atomic             Coordinates (Angstroms)
 Number     Number       Type             X           Y           Z
 ---------------------------------------------------------------------
      1          6           0       -2.082571   -1.676388    0.000000
      2          6           0       -1.407831   -0.545078    0.000000
      3          6           0        0.057721   -0.467750    0.000000
      4          1           0        0.542436   -1.426937    0.000000
      5          6           0        0.781609    0.636470    0.000000
      6          1           0        0.345635    1.617436    0.000000
      7          1           0        1.854393    0.580866    0.000000
      8          9           0       -1.456625   -2.845935    0.000000
      9         17           0       -2.335452    0.930127    0.000000
     10          1           0       -3.148491   -1.767130    0.000000
 ---------------------------------------------------------------------
                    Distance matrix (angstroms):
                    1          2          3          4          5
     1  C    0.000000
     2  C    1.317245   0.000000
     3  C    2.457978   1.467590   0.000000
     4  H    2.636832   2.140377   1.074704   0.000000
     5  C    3.681417   2.487911   1.320346   2.077223   0.000000
     6  H    4.092121   2.784082   2.104968   3.050727   1.073483
     7  H    4.538158   3.451066   2.080295   2.398439   1.074224
     8  F    1.326517   2.301374   2.819399   2.451489   4.139666
     9  Cl   2.618753   1.742617   2.771523   3.719945   3.130863
    10  H    1.069776   2.126807   3.459507   3.706572   4.606840
                    6          7          8          9         10
     6  H    0.000000
     7  H    1.830526   0.000000
     8  F    4.813504   4.765061   0.000000
     9  Cl   2.767783   4.204377   3.876981   0.000000
    10  H    4.864586   5.526476   2.006548   2.817130   0.000000
 Stoichiometry    C4H4ClF
 Framework group  CS[SG(C4H4ClF)]
 Deg. of freedom    17
 Full point group                 CS      NOp   2
 Largest Abelian subgroup         CS      NOp   2
 Largest concise Abelian subgroup C1      NOp   1
                         Standard orientation:                         
 ---------------------------------------------------------------------
 Center     Atomic      Atomic             Coordinates (Angstroms)
 Number     Number       Type             X           Y           Z
 ---------------------------------------------------------------------
      1          6           0       -0.378260    1.435026    0.000000
      2          6           0        0.000000    0.173260    0.000000
      3          6           0       -0.933082   -0.959515    0.000000
      4          1           0       -1.967743   -0.668882    0.000000
      5          6           0       -0.607998   -2.239216    0.000000
      6          1           0        0.409790   -2.580498    0.000000
      7          1           0       -1.373745   -2.992602    0.000000
      8          9           0       -1.663429    1.763645    0.000000
      9         17           0        1.714332   -0.139434    0.000000
     10          1           0        0.274951    2.282219    0.000000
 ---------------------------------------------------------------------
 Rotational constants (GHZ):      3.6375027      2.3375866      1.4230712
 Standard basis: 6-31G(d) (6D, 7F)
 There are    77 symmetry adapted basis functions of A'  symmetry.
 There are    25 symmetry adapted basis functions of A"  symmetry.
 Integral buffers will be    131072 words long.
 Raffenetti 1 integral format.
 Two-electron integral symmetry is turned on.
   102 basis functions,   208 primitive gaussians,   102 cartesian basis functions
    27 alpha electrons       27 beta electrons
       nuclear repulsion energy       266.6939675110 Hartrees.
 NAtoms=   10 NActive=   10 NUniq=   10 SFac= 7.50D-01 NAtFMM=   80 NAOKFM=F Big=F
 One-electron integrals computed using PRISM.
 NBasis=   102 RedAO= T  NBF=    77    25
 NBsUse=   102 1.00D-06 NBFU=    77    25
 Initial guess read from the read-write file.
 B after Tr=     0.000000    0.000000    0.000000
         Rot=    1.000000    0.000000    0.000000    0.000000 Ang=   0.00 deg.
 Initial guess orbital symmetries:
       Occupied  (A') (A') (A') (A') (A') (A') (A') (A') (A') (A")
                 (A') (A') (A') (A') (A') (A') (A') (A') (A") (A')
                 (A') (A') (A") (A') (A') (A") (A")
       Virtual   (A") (A') (A") (A') (A') (A') (A') (A') (A') (A')
                 (A') (A') (A") (A') (A') (A') (A') (A") (A") (A')
                 (A') (A") (A") (A') (A') (A') (A') (A') (A") (A')
                 (A') (A") (A') (A') (A') (A') (A') (A') (A') (A")
                 (A") (A') (A') (A") (A') (A") (A") (A") (A') (A')
                 (A") (A') (A') (A') (A') (A") (A') (A') (A') (A")
                 (A') (A") (A') (A") (A') (A') (A') (A') (A') (A')
                 (A') (A') (A') (A') (A')
 Requested convergence on RMS density matrix=1.00D-08 within 128 cycles.
 Requested convergence on MAX density matrix=1.00D-06.
 Requested convergence on             energy=1.00D-06.
 No special actions if energy rises.
 Keep R1 ints in memory in canonical form, NReq=14671843.
 SCF Done:  E(RHF) =  -712.663762022     A.U. after    9 cycles
             Convg  =    0.8343D-08             -V/T =  2.0007
 Calling FoFJK, ICntrl=      2127 FMM=F ISym2X=1 I1Cent= 0 IOpClX= 0 NMat=1 NMatS=1 NMatT=0.
 ***** Axes restored to original set *****
 -------------------------------------------------------------------
 Center     Atomic                   Forces (Hartrees/Bohr)
 Number     Number              X              Y              Z
 -------------------------------------------------------------------
      1        6          -0.000026577    0.000040920    0.000000000
      2        6           0.000085865   -0.000081108    0.000000000
      3        6          -0.000049671   -0.000076853    0.000000000
      4        1          -0.000011688   -0.000003853    0.000000000
      5        6           0.000032592    0.000123712    0.000000000
      6        1           0.000017678   -0.000023740    0.000000000
      7        1           0.000003899   -0.000010079    0.000000000
      8        9          -0.000001031   -0.000015856    0.000000000
      9       17          -0.000061652    0.000059472    0.000000000
     10        1           0.000010585   -0.000012615    0.000000000
 -------------------------------------------------------------------
 Cartesian Forces:  Max     0.000123712 RMS     0.000040857

 GradGradGradGradGradGradGradGradGradGradGradGradGradGradGradGradGradGrad
 Berny optimization.
 Using GEDIIS/GDIIS optimizer.
 Internal  Forces:  Max     0.000104876 RMS     0.000026742
 Search for a local minimum.
 Step number   5 out of a maximum of   43
 All quantities printed in internal units (Hartrees-Bohrs-Radians)
 Mixed Optimization -- En-DIIS/RFO-DIIS
 Swaping is turned off.
 Update second derivatives using D2CorX and points    1    2    3    4    5
 DE= -1.06D-06 DEPred=-1.05D-06 R= 1.01D+00
 SS=  1.41D+00  RLast= 3.13D-03 DXNew= 8.4853D-01 9.3825D-03
 Trust test= 1.01D+00 RLast= 3.13D-03 DXMaxT set to 5.05D-01
     Eigenvalues ---    0.00237   0.01435   0.01526   0.02681   0.02681
     Eigenvalues ---    0.02681   0.02681   0.15028   0.15893   0.16163
     Eigenvalues ---    0.16879   0.18963   0.21784   0.23223   0.25651
     Eigenvalues ---    0.29049   0.30553   0.37195   0.37203   0.37290
     Eigenvalues ---    0.37648   0.55212   0.56188   0.716841000.00000
     Eigenvalues --- 1000.000001000.000001000.000001000.000001000.00000
     Eigenvalues --- 1000.000001000.000001000.00000
 En-DIIS/RFO-DIIS IScMMF=        0 using points:     5    4    3
 RFO step:  Lambda=-3.96332828D-08.
 DIIS coeffs:      1.00895     -0.00709     -0.00186
 Iteration  1 RMS(Cart)=  0.00014251 RMS(Int)=  0.00000001
 Iteration  2 RMS(Cart)=  0.00000001 RMS(Int)=  0.00000000
 ClnCor:  largest displacement from symmetrization is 1.40D-15 for atom     7.
 Variable       Old X    -DE/DX   Delta X   Delta X   Delta X     New X
                                  (DIIS)     (GDIIS)  (Total)
    R1        2.48923   0.00000  -0.00001  -0.00002  -0.00003   2.48920
    R2        2.50675   0.00001   0.00000   0.00003   0.00003   2.50678
    R3        2.02158  -0.00001   0.00000  -0.00003  -0.00003   2.02155
    R4        2.77334  -0.00001   0.00000  -0.00005  -0.00005   2.77329
    R5        3.29307   0.00008   0.00002   0.00032   0.00034   3.29341
    R6        2.03090   0.00000   0.00000  -0.00001  -0.00001   2.03089
    R7        2.49509   0.00010   0.00000   0.00018   0.00017   2.49527
    R8        2.02859  -0.00003   0.00000  -0.00008  -0.00008   2.02851
    R9        2.02999   0.00000   0.00000   0.00001   0.00001   2.03000
    A1        2.11239   0.00000  -0.00002   0.00000  -0.00002   2.11237
    A2        2.19351   0.00001   0.00000   0.00009   0.00009   2.19360
    A3        1.97728  -0.00002   0.00002  -0.00009  -0.00007   1.97722
    A4        2.16130   0.00001   0.00002   0.00011   0.00013   2.16142
    A5        2.04247  -0.00004  -0.00001  -0.00019  -0.00021   2.04227
    A6        2.07941   0.00003  -0.00001   0.00009   0.00008   2.07949
    A7        1.98599  -0.00002   0.00002  -0.00012  -0.00010   1.98589
    A8        2.20379   0.00002  -0.00001   0.00011   0.00010   2.20388
    A9        2.09341   0.00000  -0.00001   0.00001   0.00001   2.09341
   A10        2.14310   0.00002   0.00000   0.00011   0.00011   2.14321
   A11        2.09929  -0.00002   0.00000  -0.00010  -0.00010   2.09919
   A12        2.04080   0.00000   0.00000   0.00000  -0.00001   2.04079
    D1        0.00000   0.00000   0.00000   0.00000   0.00000   0.00000
    D2        3.14159   0.00000   0.00000   0.00000   0.00000   3.14159
    D3        3.14159   0.00000   0.00000   0.00000   0.00000   3.14159
    D4        0.00000   0.00000   0.00000   0.00000   0.00000   0.00000
    D5        0.00000   0.00000   0.00000   0.00000   0.00000   0.00000
    D6        3.14159   0.00000   0.00000   0.00000   0.00000   3.14159
    D7        3.14159   0.00000   0.00000   0.00000   0.00000   3.14159
    D8        0.00000   0.00000   0.00000   0.00000   0.00000   0.00000
    D9        0.00000   0.00000   0.00000   0.00000   0.00000   0.00000
   D10        3.14159   0.00000   0.00000   0.00000   0.00000   3.14159
   D11        3.14159   0.00000   0.00000   0.00000   0.00000   3.14159
   D12        0.00000   0.00000   0.00000   0.00000   0.00000   0.00000
         Item               Value     Threshold  Converged?
 Maximum Force            0.000105     0.000450     YES
 RMS     Force            0.000027     0.000300     YES
 Maximum Displacement     0.000537     0.001800     YES
 RMS     Displacement     0.000143     0.001200     YES
 Predicted change in Energy=-3.559072D-08
 Optimization completed.
    -- Stationary point found.
                           ----------------------------
                           !   Optimized Parameters   !
                           ! (Angstroms and Degrees)  !
 --------------------------                            --------------------------
 ! Name  Definition              Value          Derivative Info.                !
 --------------------------------------------------------------------------------
 ! R1    R(1,2)                  1.3172         -DE/DX =    0.0                 !
 ! R2    R(1,8)                  1.3265         -DE/DX =    0.0                 !
 ! R3    R(1,10)                 1.0698         -DE/DX =    0.0                 !
 ! R4    R(2,3)                  1.4676         -DE/DX =    0.0                 !
 ! R5    R(2,9)                  1.7426         -DE/DX =    0.0001              !
 ! R6    R(3,4)                  1.0747         -DE/DX =    0.0                 !
 ! R7    R(3,5)                  1.3203         -DE/DX =    0.0001              !
 ! R8    R(5,6)                  1.0735         -DE/DX =    0.0                 !
 ! R9    R(5,7)                  1.0742         -DE/DX =    0.0                 !
 ! A1    A(2,1,8)              121.0313         -DE/DX =    0.0                 !
 ! A2    A(2,1,10)             125.6787         -DE/DX =    0.0                 !
 ! A3    A(8,1,10)             113.29           -DE/DX =    0.0                 !
 ! A4    A(1,2,3)              123.8332         -DE/DX =    0.0                 !
 ! A5    A(1,2,9)              117.0251         -DE/DX =    0.0                 !
 ! A6    A(3,2,9)              119.1417         -DE/DX =    0.0                 !
 ! A7    A(2,3,4)              113.7889         -DE/DX =    0.0                 !
 ! A8    A(2,3,5)              126.2678         -DE/DX =    0.0                 !
 ! A9    A(4,3,5)              119.9433         -DE/DX =    0.0                 !
 ! A10   A(3,5,6)              122.7906         -DE/DX =    0.0                 !
 ! A11   A(3,5,7)              120.2804         -DE/DX =    0.0                 !
 ! A12   A(6,5,7)              116.929          -DE/DX =    0.0                 !
 ! D1    D(8,1,2,3)              0.0            -DE/DX =    0.0                 !
 ! D2    D(8,1,2,9)            180.0            -DE/DX =    0.0                 !
 ! D3    D(10,1,2,3)           180.0            -DE/DX =    0.0                 !
 ! D4    D(10,1,2,9)             0.0            -DE/DX =    0.0                 !
 ! D5    D(1,2,3,4)              0.0            -DE/DX =    0.0                 !
 ! D6    D(1,2,3,5)            180.0            -DE/DX =    0.0                 !
 ! D7    D(9,2,3,4)            180.0            -DE/DX =    0.0                 !
 ! D8    D(9,2,3,5)              0.0            -DE/DX =    0.0                 !
 ! D9    D(2,3,5,6)              0.0            -DE/DX =    0.0                 !
 ! D10   D(2,3,5,7)            180.0            -DE/DX =    0.0                 !
 ! D11   D(4,3,5,6)            180.0            -DE/DX =    0.0                 !
 ! D12   D(4,3,5,7)              0.0            -DE/DX =    0.0                 !
 --------------------------------------------------------------------------------
 GradGradGradGradGradGradGradGradGradGradGradGradGradGradGradGradGradGrad

                          Input orientation:                          
 ---------------------------------------------------------------------
 Center     Atomic      Atomic             Coordinates (Angstroms)
 Number     Number       Type             X           Y           Z
 ---------------------------------------------------------------------
      1          6           0       -2.082571   -1.676388    0.000000
      2          6           0       -1.407831   -0.545078    0.000000
      3          6           0        0.057721   -0.467750    0.000000
      4          1           0        0.542436   -1.426937    0.000000
      5          6           0        0.781609    0.636470    0.000000
      6          1           0        0.345635    1.617436    0.000000
      7          1           0        1.854393    0.580866    0.000000
      8          9           0       -1.456625   -2.845935    0.000000
      9         17           0       -2.335452    0.930127    0.000000
     10          1           0       -3.148491   -1.767130    0.000000
 ---------------------------------------------------------------------
                    Distance matrix (angstroms):
                    1          2          3          4          5
     1  C    0.000000
     2  C    1.317245   0.000000
     3  C    2.457978   1.467590   0.000000
     4  H    2.636832   2.140377   1.074704   0.000000
     5  C    3.681417   2.487911   1.320346   2.077223   0.000000
     6  H    4.092121   2.784082   2.104968   3.050727   1.073483
     7  H    4.538158   3.451066   2.080295   2.398439   1.074224
     8  F    1.326517   2.301374   2.819399   2.451489   4.139666
     9  Cl   2.618753   1.742617   2.771523   3.719945   3.130863
    10  H    1.069776   2.126807   3.459507   3.706572   4.606840
                    6          7          8          9         10
     6  H    0.000000
     7  H    1.830526   0.000000
     8  F    4.813504   4.765061   0.000000
     9  Cl   2.767783   4.204377   3.876981   0.000000
    10  H    4.864586   5.526476   2.006548   2.817130   0.000000
 Stoichiometry    C4H4ClF
 Framework group  CS[SG(C4H4ClF)]
 Deg. of freedom    17
 Full point group                 CS      NOp   2
 Largest Abelian subgroup         CS      NOp   2
 Largest concise Abelian subgroup C1      NOp   1
                         Standard orientation:                         
 ---------------------------------------------------------------------
 Center     Atomic      Atomic             Coordinates (Angstroms)
 Number     Number       Type             X           Y           Z
 ---------------------------------------------------------------------
      1          6           0       -0.378260    1.435026    0.000000
      2          6           0        0.000000    0.173260    0.000000
      3          6           0       -0.933082   -0.959515    0.000000
      4          1           0       -1.967743   -0.668882    0.000000
      5          6           0       -0.607998   -2.239216    0.000000
      6          1           0        0.409790   -2.580498    0.000000
      7          1           0       -1.373745   -2.992602    0.000000
      8          9           0       -1.663429    1.763645    0.000000
      9         17           0        1.714332   -0.139434    0.000000
     10          1           0        0.274951    2.282219    0.000000
 ---------------------------------------------------------------------
 Rotational constants (GHZ):      3.6375027      2.3375866      1.4230712

 **********************************************************************

            Population analysis using the SCF density.

 **********************************************************************

 Orbital symmetries:
       Occupied  (A') (A') (A') (A') (A') (A') (A') (A') (A') (A")
                 (A') (A') (A') (A') (A') (A') (A') (A') (A") (A')
                 (A') (A') (A") (A') (A') (A") (A")
       Virtual   (A") (A') (A") (A') (A') (A') (A') (A') (A') (A')
                 (A') (A') (A") (A') (A') (A') (A') (A") (A") (A')
                 (A') (A") (A") (A') (A') (A') (A') (A') (A") (A')
                 (A') (A") (A') (A') (A') (A') (A') (A') (A') (A")
                 (A") (A') (A') (A") (A') (A") (A") (A") (A') (A')
                 (A") (A') (A') (A') (A') (A") (A') (A') (A') (A")
                 (A') (A") (A') (A") (A') (A') (A') (A') (A') (A')
                 (A') (A') (A') (A') (A')
 The electronic state is 1-A'.
 Alpha  occ. eigenvalues -- -104.83605 -26.32895 -11.34042 -11.30960 -11.25347
 Alpha  occ. eigenvalues --  -11.23801 -10.56943  -8.03886  -8.03550  -8.03536
[...]
  Atom  AN      X      Y      Z        X      Y      Z        X      Y      Z
     1   6     0.00   0.00   0.00     0.00   0.00   0.00     0.05   0.08   0.00
     2   6     0.00   0.00   0.00     0.00   0.00   0.00     0.00  -0.01   0.00
     3   6    -0.08   0.03   0.00    -0.01   0.00   0.00     0.00   0.00   0.00
     4   1     0.92  -0.26   0.00     0.13  -0.04   0.00    -0.01   0.00   0.00
     5   6     0.02  -0.02   0.00    -0.10  -0.02   0.00     0.00   0.00   0.00
     6   1    -0.25   0.08   0.00     0.70  -0.24   0.00    -0.01   0.00   0.00
     7   1     0.08   0.08   0.00     0.46   0.46   0.00    -0.01  -0.01   0.00
     8   9     0.00   0.00   0.00     0.00   0.00   0.00     0.00   0.00   0.00
     9  17     0.00   0.00   0.00     0.00   0.00   0.00     0.00   0.00   0.00
    10   1     0.00  -0.01   0.00    -0.01  -0.02   0.00    -0.60  -0.79   0.00

 -------------------
 - Thermochemistry -
 -------------------
 Temperature   298.150 Kelvin.  Pressure   1.00000 Atm.
 Atom     1 has atomic number  6 and mass  12.00000
 Atom     2 has atomic number  6 and mass  12.00000
 Atom     3 has atomic number  6 and mass  12.00000
 Atom     4 has atomic number  1 and mass   1.00783
 Atom     5 has atomic number  6 and mass  12.00000
 Atom     6 has atomic number  1 and mass   1.00783
 Atom     7 has atomic number  1 and mass   1.00783
 Atom     8 has atomic number  9 and mass  18.99840
 Atom     9 has atomic number 17 and mass  34.96885
 Atom    10 has atomic number  1 and mass   1.00783
 Molecular mass:   105.99856 amu.
 Principal axes and moments of inertia in atomic units:
                           1         2         3
     Eigenvalues --   496.14842 772.053191268.20160
           X            0.71038   0.70382   0.00000
           Y           -0.70382   0.71038   0.00000
           Z            0.00000   0.00000   1.00000
 This molecule is an asymmetric top.
 Rotational symmetry number  1.
 Warning -- assumption of classical behavior for rotation
           may cause significant error
 Rotational temperatures (Kelvin)      0.17457     0.11219     0.06830
 Rotational constants (GHZ):           3.63750     2.33759     1.42307
 Zero-point vibrational energy     196056.3 (Joules/Mol)
                                   46.85859 (Kcal/Mol)
 Warning -- explicit consideration of   7 degrees of freedom as
           vibrations may cause significant error
 Vibrational temperatures:    192.98   318.15   408.15   442.19   629.16
          (Kelvin)            684.69   829.21  1146.29  1155.30  1427.24
                             1529.80  1569.20  1627.41  1781.41  1877.79
                             2083.08  2141.83  2289.94  2648.19  2751.43
                             4827.41  4871.45  4950.70  4977.24
 
 Zero-point correction=                           0.074674 (Hartree/Particle)
 Thermal correction to Energy=                    0.080563
 Thermal correction to Enthalpy=                  0.081507
 Thermal correction to Gibbs Free Energy=         0.044377
 Sum of electronic and zero-point Energies=           -712.589088
 Sum of electronic and thermal Energies=              -712.583199
 Sum of electronic and thermal Enthalpies=            -712.582255
 Sum of electronic and thermal Free Energies=         -712.619385
 
                     E (Thermal)             CV                S
                      KCal/Mol        Cal/Mol-Kelvin    Cal/Mol-Kelvin
 Total                   50.554             19.959             78.146
 Electronic               0.000              0.000              0.000
 Translational            0.889              2.981             39.892
 Rotational               0.889              2.981             27.676
 Vibrational             48.776             13.998             10.578
 Vibration     1          0.613              1.919              2.886
 Vibration     2          0.648              1.809              1.950
 Vibration     3          0.682              1.704              1.511
 Vibration     4          0.697              1.660              1.377
 Vibration     5          0.798              1.389              0.835
 Vibration     6          0.833              1.304              0.721
 Vibration     7          0.933              1.082              0.492
                       Q            Log10(Q)             Ln(Q)
 Total Bot       0.387194D-20        -20.412072        -47.000532
 Total V=0       0.861931D+14         13.935472         32.087611
 Vib (Bot)       0.361787D-33        -33.441547        -77.002007
 Vib (Bot)    1  0.151835D+01          0.181373          0.417627
 Vib (Bot)    2  0.894108D+00         -0.048610         -0.111928
 Vib (Bot)    3  0.676424D+00         -0.169781         -0.390936
 Vib (Bot)    4  0.616203D+00         -0.210276         -0.484179
 Vib (Bot)    5  0.396175D+00         -0.402113         -0.925901
 Vib (Bot)    6  0.352684D+00         -0.452614         -1.042183
 Vib (Bot)    7  0.265371D+00         -0.576147         -1.326627
 Vib (V=0)       0.805373D+01          0.905997          2.086136
 Vib (V=0)    1  0.209856D+01          0.321922          0.741252
 Vib (V=0)    2  0.152442D+01          0.183104          0.421612
 Vib (V=0)    3  0.134116D+01          0.127480          0.293534
 Vib (V=0)    4  0.129354D+01          0.111780          0.257383
 Vib (V=0)    5  0.113793D+01          0.056115          0.129211
 Vib (V=0)    6  0.111187D+01          0.046054          0.106044
 Vib (V=0)    7  0.106606D+01          0.027781          0.063968
 Electronic      0.100000D+01          0.000000          0.000000
 Translational   0.428948D+08          7.632405         17.574262
 Rotational      0.249500D+06          5.397070         12.427213
 ***** Axes restored to original set *****
 -------------------------------------------------------------------
 Center     Atomic                   Forces (Hartrees/Bohr)
 Number     Number              X              Y              Z
 -------------------------------------------------------------------
      1        6          -0.000026597    0.000040910    0.000000000
      2        6           0.000085895   -0.000081088    0.000000000
      3        6          -0.000049661   -0.000076836    0.000000000
      4        1          -0.000011695   -0.000003847    0.000000000
      5        6           0.000032563    0.000123678    0.000000000
      6        1           0.000017683   -0.000023739    0.000000000
      7        1           0.000003904   -0.000010074    0.000000000
      8        9          -0.000001016   -0.000015863    0.000000000
      9       17          -0.000061653    0.000059469    0.000000000
     10        1           0.000010578   -0.000012609    0.000000000
 -------------------------------------------------------------------
 Cartesian Forces:  Max     0.000123678 RMS     0.000040852

 GradGradGradGradGradGradGradGradGradGradGradGradGradGradGradGradGradGrad
 Berny optimization.
 Internal  Forces:  Max     0.000104842 RMS     0.000026738
 Search for a local minimum.
 Step number   1 out of a maximum of    2
 All quantities printed in internal units (Hartrees-Bohrs-Radians)
 Second derivative matrix not updated -- analytic derivatives used.
     Eigenvalues ---    0.00565   0.02656   0.02966   0.03398   0.03790
     Eigenvalues ---    0.05197   0.06544   0.12380   0.13111   0.14199
     Eigenvalues ---    0.15693   0.18234   0.20992   0.24258   0.28041
     Eigenvalues ---    0.32675   0.39807   0.40605   0.40715   0.41913
     Eigenvalues ---    0.42179   0.50453   0.73600   0.753861000.00000
     Eigenvalues --- 1000.000001000.000001000.000001000.000001000.00000
     Eigenvalues --- 1000.000001000.000001000.00000
 Angle between quadratic step and forces=  32.23 degrees.
 Linear search not attempted -- first point.
 Iteration  1 RMS(Cart)=  0.00012885 RMS(Int)=  0.00000001
 Iteration  2 RMS(Cart)=  0.00000001 RMS(Int)=  0.00000000
 ClnCor:  largest displacement from symmetrization is 7.02D-16 for atom     5.
 Variable       Old X    -DE/DX   Delta X   Delta X   Delta X     New X
                                 (Linear)    (Quad)   (Total)
    R1        2.48923   0.00000   0.00000  -0.00001  -0.00001   2.48922
    R2        2.50675   0.00001   0.00000   0.00004   0.00004   2.50680
    R3        2.02158  -0.00001   0.00000  -0.00003  -0.00003   2.02155
    R4        2.77334  -0.00001   0.00000  -0.00008  -0.00008   2.77327
    R5        3.29307   0.00008   0.00000   0.00035   0.00035   3.29342
    R6        2.03090   0.00000   0.00000   0.00000   0.00000   2.03090
    R7        2.49509   0.00010   0.00000   0.00014   0.00014   2.49523
    R8        2.02859  -0.00003   0.00000  -0.00007  -0.00007   2.02851
    R9        2.02999   0.00000   0.00000   0.00001   0.00001   2.03000
    A1        2.11239   0.00000   0.00000   0.00000   0.00000   2.11239
    A2        2.19351   0.00001   0.00000   0.00009   0.00009   2.19360
    A3        1.97728  -0.00002   0.00000  -0.00009  -0.00009   1.97719
    A4        2.16130   0.00001   0.00000   0.00012   0.00012   2.16142
    A5        2.04247  -0.00004   0.00000  -0.00021  -0.00021   2.04227
    A6        2.07941   0.00003   0.00000   0.00008   0.00008   2.07949
    A7        1.98599  -0.00002   0.00000  -0.00012  -0.00012   1.98587
    A8        2.20379   0.00002   0.00000   0.00009   0.00009   2.20387
    A9        2.09341   0.00000   0.00000   0.00003   0.00003   2.09344
   A10        2.14310   0.00002   0.00000   0.00007   0.00007   2.14318
   A11        2.09929  -0.00002   0.00000  -0.00014  -0.00014   2.09915
   A12        2.04080   0.00000   0.00000   0.00006   0.00006   2.04086
    D1        0.00000   0.00000   0.00000   0.00000   0.00000   0.00000
    D2        3.14159   0.00000   0.00000   0.00000   0.00000   3.14159
    D3        3.14159   0.00000   0.00000   0.00000   0.00000   3.14159
    D4        0.00000   0.00000   0.00000   0.00000   0.00000   0.00000
    D5        0.00000   0.00000   0.00000   0.00000   0.00000   0.00000
    D6        3.14159   0.00000   0.00000   0.00000   0.00000   3.14159
    D7        3.14159   0.00000   0.00000   0.00000   0.00000   3.14159
    D8        0.00000   0.00000   0.00000   0.00000   0.00000   0.00000
    D9        0.00000   0.00000   0.00000   0.00000   0.00000   0.00000
   D10        3.14159   0.00000   0.00000   0.00000   0.00000   3.14159
   D11        3.14159   0.00000   0.00000   0.00000   0.00000   3.14159
   D12        0.00000   0.00000   0.00000   0.00000   0.00000   0.00000
         Item               Value     Threshold  Converged?
 Maximum Force            0.000105     0.000450     YES
 RMS     Force            0.000027     0.000300     YES
 Maximum Displacement     0.000494     0.001800     YES
 RMS     Displacement     0.000129     0.001200     YES
 Predicted change in Energy=-3.491929D-08
 Optimization completed.
    -- Stationary point found.
                           ----------------------------
                           !   Optimized Parameters   !
                           ! (Angstroms and Degrees)  !
 --------------------------                            --------------------------
 ! Name  Definition              Value          Derivative Info.                !
 --------------------------------------------------------------------------------
 ! R1    R(1,2)                  1.3172         -DE/DX =    0.0                 !
 ! R2    R(1,8)                  1.3265         -DE/DX =    0.0                 !
 ! R3    R(1,10)                 1.0698         -DE/DX =    0.0                 !
 ! R4    R(2,3)                  1.4676         -DE/DX =    0.0                 !
 ! R5    R(2,9)                  1.7426         -DE/DX =    0.0001              !
 ! R6    R(3,4)                  1.0747         -DE/DX =    0.0                 !
 ! R7    R(3,5)                  1.3203         -DE/DX =    0.0001              !
 ! R8    R(5,6)                  1.0735         -DE/DX =    0.0                 !
 ! R9    R(5,7)                  1.0742         -DE/DX =    0.0                 !
 ! A1    A(2,1,8)              121.0313         -DE/DX =    0.0                 !
 ! A2    A(2,1,10)             125.6787         -DE/DX =    0.0                 !
 ! A3    A(8,1,10)             113.29           -DE/DX =    0.0                 !
 ! A4    A(1,2,3)              123.8332         -DE/DX =    0.0                 !
 ! A5    A(1,2,9)              117.0251         -DE/DX =    0.0                 !
 ! A6    A(3,2,9)              119.1417         -DE/DX =    0.0                 !
 ! A7    A(2,3,4)              113.7889         -DE/DX =    0.0                 !
 ! A8    A(2,3,5)              126.2678         -DE/DX =    0.0                 !
 ! A9    A(4,3,5)              119.9433         -DE/DX =    0.0                 !
 ! A10   A(3,5,6)              122.7906         -DE/DX =    0.0                 !
 ! A11   A(3,5,7)              120.2804         -DE/DX =    0.0                 !
 ! A12   A(6,5,7)              116.929          -DE/DX =    0.0                 !
 ! D1    D(8,1,2,3)              0.0            -DE/DX =    0.0                 !
 ! D2    D(8,1,2,9)            180.0            -DE/DX =    0.0                 !
 ! D3    D(10,1,2,3)           180.0            -DE/DX =    0.0                 !
 ! D4    D(10,1,2,9)             0.0            -DE/DX =    0.0                 !
 ! D5    D(1,2,3,4)              0.0            -DE/DX =    0.0                 !
 ! D6    D(1,2,3,5)            180.0            -DE/DX =    0.0                 !
 ! D7    D(9,2,3,4)            180.0            -DE/DX =    0.0                 !
 ! D8    D(9,2,3,5)              0.0            -DE/DX =    0.0                 !
 ! D9    D(2,3,5,6)              0.0            -DE/DX =    0.0                 !
 ! D10   D(2,3,5,7)            180.0            -DE/DX =    0.0                 !
 ! D11   D(4,3,5,6)            180.0            -DE/DX =    0.0                 !
 ! D12   D(4,3,5,7)              0.0            -DE/DX =    0.0                 !
 --------------------------------------------------------------------------------
 GradGradGradGradGradGradGradGradGradGradGradGradGradGradGradGradGradGrad

 1\1\GINC-MALLOS69\Freq\RHF\6-31G(d)\C4H4Cl1F1\MARLIN\26-Oct-2024\0\\#N
  Geom=AllCheck Guess=TCheck SCRF=Check GenChk RHF/6-31G(d) Freq\\Title
  Card Required\\0,1\C,-2.0825706108,-1.6763878241,0.\C,-1.4078306919,-
 0.5450784944,0.\C,0.057721019,-0.4677495931,0.\H,0.5424358418,-1.42693
 74043,0.\C,0.7816086177,0.636470115,0.\H,0.3456352589,1.6174355861,0.\
 H,1.854392881,0.5808663802,0.\F,-1.4566248474,-2.8459348656,0.\Cl,-2.3
 354524154,0.9301266577,0.\H,-3.148491293,-1.7671295373,0.\\Version=EM6
 4L-G09RevA.01\State=1-A'\HF=-712.663762\RMSD=2.660e-09\RMSF=4.085e-05\
 ZeroPoint=0.0746739\Thermal=0.0805627\Dipole=0.1080016,-0.0584576,0.\D
 ipoleDeriv=0.1602266,-0.4626659,0.,0.2118671,1.4117909,0.,0.,0.,0.0789
 647,0.2541246,-0.4449943,0.,-0.411605,0.434008,0.,0.,0.,-0.0587708,0.1
 96586,0.101939,0.,0.0283381,-0.1125226,0.,0.,0.,-0.0956707,-0.0276581,
 0.0454661,0.,0.043792,-0.0131822,0.,0.,0.,0.1526714,0.0036117,-0.12937
 17,0.,-0.0382437,0.0594793,0.,0.,0.,-0.2837253,0.03472,0.0681416,0.,0.
 0393548,-0.0158976,0.,0.,0.,0.1630205,-0.1071231,-0.0148693,0.,0.02275
 7,0.0559705,0.,0.,0.,0.1399041,-0.2108039,0.561928,0.,-0.0796564,-1.39
 00228,0.,0.,0.,-0.152776,-0.3025243,0.2546175,0.,0.1967985,-0.458502,0
 .,0.,0.,-0.095284,-0.0011595,0.0198091,0.,-0.0134025,0.0288786,0.,0.,0
 .,0.1516661\Polar=61.3170874,13.9006906,70.1616728,0.,0.,21.1878641\Hy
 perPolar=10.2083597,-9.5775753,-4.1404516,5.41424,0.,0.,0.,-3.9793949,
 -3.8363773,0.\PG=CS [SG(C4H4Cl1F1)]\NImag=0\\0.87525946,0.16739486,0.9
 2835075,0.,0.,0.14915681,-0.28322921,-0.24311287,0.,0.68065273,-0.2456
 4368,-0.49638312,0.,0.19828593,0.81613603,0.,0.,-0.06787393,0.,0.,0.13
 358150,-0.01958082,-0.02592526,0.,-0.27686855,-0.00196280,0.,0.7350516
 8,-0.04588868,0.00730336,0.,-0.00229085,-0.11121445,0.,0.13263264,0.96
 090011,0.,0.,0.00949810,0.,0.,-0.07383888,0.,0.,0.15580143,-0.00278043
 ,0.00346665,0.,-0.01319000,0.02996755,0.,-0.13439399,0.12754044,0.,0.1
 3989836,0.00055367,-0.00084027,0.,-0.00037876,0.00400275,0.,0.12710783
 ,-0.31493243,0.,-0.13353556,0.33620826,0.,0.,-0.00030589,0.,0.,0.00369
 484,0.,0.,-0.04867431,0.,0.,0.03161475,-0.00736970,0.01137281,0.,-0.03
 154810,-0.04197096,0.,-0.28564636,-0.23531642,0.,0.01452771,0.01536516
 ,0.,0.81750690,0.00835894,0.00266137,0.,-0.01517744,0.00437010,0.,-0.2
 2716994,-0.50709707,0.,-0.02165328,-0.02298798,0.,0.11721771,0.9254614
 6,0.,0.,0.00097664,0.,0.,0.00686177,0.,0.,-0.06492894,0.,0.,0.00813063
 ,0.,0.,0.14059833,0.00036751,-0.00031299,0.,0.00102685,-0.00006522,0.,
 0.01619370,-0.01906293,0.,-0.00211157,-0.00349630,0.,-0.12591726,0.122
 45292,0.,0.12244792,0.00037165,-0.00064764,0.,0.00213277,-0.00052898,0
 .,0.01518636,-0.02220993,0.,-0.00364344,-0.00266977,0.,0.11532934,-0.3
 3146964,0.,-0.12873058,0.35104476,0.,0.,0.00041608,0.,0.,-0.00883194,0
 .,0.,0.00792328,0.,0.,0.01372290,0.,0.,-0.04724422,0.,0.,0.02918657,-0
 .00119675,0.00082719,0.,0.00080251,-0.00272652,0.,-0.01407356,0.004252
 33,0.,0.00126396,-0.00029084,0.,-0.38387118,0.01835888,0.,-0.00775669,
 -0.00083221,0.,0.40450198,-0.00164581,0.00113211,0.,-0.00164040,-0.006
 18317,0.,-0.03408636,0.00604420,0.,-0.00003687,0.00140474,0.,0.0255040
 1,-0.07166335,0.,0.02966300,0.00405310,0.,-0.01863202,0.06502903,0.,0.
 ,-0.00024924,0.,0.,0.01449457,0.,0.,0.00700015,0.,0.,-0.00961332,0.,0.
 ,-0.04446138,0.,0.,0.00465668,0.,0.,0.02903383,-0.16667996,0.13216195,
 0.,0.01837362,-0.00771110,0.,-0.00657260,0.00378097,0.,0.00239866,-0.0
 0361266,0.,0.00382156,-0.00215737,0.,-0.00043440,-0.00064839,0.,0.0002
 9013,0.00029526,0.,0.16234899,0.12749471,-0.33605198,0.,0.02784032,-0.
 05160722,0.,0.00758796,0.00000396,0.,-0.00363938,-0.00182365,0.,-0.003
 14415,0.00015687,0.,0.00033778,0.00044924,0.,-0.00048129,-0.00018522,0
 .,-0.16747364,0.40957961,0.,0.,-0.04485279,0.,0.,0.00955919,0.,0.,-0.0
 0689212,0.,0.,0.00003990,0.,0.,0.00014232,0.,0.,-0.00031213,0.,0.,0.00
 072321,0.,0.,0.02475260,0.00274100,-0.00332748,0.,-0.08721909,0.068414
 62,0.,-0.01502689,0.03597894,0.,-0.00583715,-0.00180779,0.,-0.00106038
 ,-0.00032673,0.,-0.00384070,0.00091553,0.,0.00006858,0.00074318,0.,-0.
 00010695,0.00117091,0.,0.10859774,0.03380033,-0.03550540,0.,0.06432158
 ,-0.16458882,0.,0.00621970,-0.01320855,0.,0.00154960,0.00152920,0.,-0.
 00262422,-0.00005237,0.,-0.00083368,0.00196681,0.,-0.00023030,0.000776
 33,0.,-0.00131493,-0.01102149,0.,-0.10086887,0.22032561,0.,0.,0.002073
 78,0.,0.,-0.02694406,0.,0.,0.00330031,0.,0.,0.00171733,0.,0.,-0.000159
 58,0.,0.,-0.00025735,0.,0.,0.00007591,0.,0.,0.01003167,0.,0.,0.0147310
 2,-0.39753109,-0.04254486,0.,-0.00880076,0.00341219,0.,0.00091739,-0.0
 0162643,0.,0.00022445,0.00009526,0.,-0.00044320,0.00009630,0.,0.000024
 64,-0.00008104,0.,-0.00002900,-0.00016397,0.,-0.01343906,0.01030678,0.
 ,0.00168384,-0.00001921,0.,0.41739279,-0.04479598,-0.07001919,0.,-0.02
 998026,0.00599689,0.,0.00040988,-0.00558920,0.,-0.00001572,0.00010916,
 0.,-0.00173327,0.00062061,0.,0.00004799,0.00001205,0.,-0.00024522,-0.0
 0040776,0.,0.04667990,-0.00950013,0.,-0.00089230,-0.00022132,0.,0.0305
 2498,0.07899891,0.,0.,-0.04883955,0.,0.,0.00929694,0.,0.,0.01081099,0.
 ,0.,-0.00032684,0.,0.,0.00008442,0.,0.,0.00074012,0.,0.,-0.00166041,0.
 ,0.,0.00680815,0.,0.,-0.00456904,0.,0.,0.02765522\\0.00002660,-0.00004
 091,0.,-0.00008590,0.00008109,0.,0.00004966,0.00007684,0.,0.00001169,0
 .00000385,0.,-0.00003256,-0.00012368,0.,-0.00001768,0.00002374,0.,-0.0
 0000390,0.00001007,0.,0.00000102,0.00001586,0.,0.00006165,-0.00005947,
 0.,-0.00001058,0.00001261,0.\\\@


 IF YOU DON'T HAVE THE LAW - ARGUE THE FACTS.
 IF YOU DON'T HAVE THE FACTS - ARGUE THE LAW.
 IF YOU DON'T HAVE EITHER - POUND THE TABLE.
 Job cpu time:  0 days  0 hours  1 minutes 17.0 seconds.
 File lengths (MBytes):  RWF=     18 Int=      0 D2E=      0 Chk=      2 Scr=      1
 Normal termination of Gaussian 09 at Sat Oct 26 19:18:28 2024.
