 Entering Gaussian System, Link 0=g09
 Initial command:
 /u/local/G09/g09/l1.exe /tmp/marlin/23014.mallos00.local/Gau-9001.inp -scrdir=/tmp/marlin/23014.mallos00.local/
 Entering Link 1 = /u/local/G09/g09/l1.exe PID=      9003.
  
 Copyright (c) 1988,1990,1992,1993,1995,1998,2003,2009, Gaussian, Inc.
                  All Rights Reserved.
  
 This is part of the Gaussian(R) 09 program.  It is based on
 the Gaussian(R) 03 system (copyright 2003, Gaussian, Inc.),
 the Gaussian(R) 98 system (copyright 1998, Gaussian, Inc.),
 the Gaussian(R) 94 system (copyright 1995, Gaussian, Inc.),
 the Gaussian 92(TM) system (copyright 1992, Gaussian, Inc.),
 the Gaussian 90(TM) system (copyright 1990, Gaussian, Inc.),
 the Gaussian 88(TM) system (copyright 1988, Gaussian, Inc.),
 the Gaussian 86(TM) system (copyright 1986, Carnegie Mellon
 University), and the Gaussian 82(TM) system (copyright 1983,
 Carnegie Mellon University). Gaussian is a federally registered
 trademark of Gaussian, Inc.
  
 This software contains proprietary and confidential information,
 including trade secrets, belonging to Gaussian, Inc.
  
 This software is provided under written license and may be
 used, copied, transmitted, or stored only in accord with that
 written license.
  
 The following legend is applicable only to US Government
 contracts under FAR:
  
                    RESTRICTED RIGHTS LEGEND
  
 Use, reproduction and disclosure by the US Government is
 subject to restrictions as set forth in subparagraphs (a)
 and (c) of the Commercial Computer Software - Restricted
 Rights clause in FAR 52.227-19.
  
 Gaussian, Inc.
 340 Quinnipiac St., Bldg. 40, Wallingford CT 06492
  
  
 ---------------------------------------------------------------
 Warning -- This program may not be used in any manner that
 competes with the business of Gaussian, Inc. or will provide
 assistance to any competitor of Gaussian, Inc.  The licensee
 of this program is prohibited from giving any competitor of
 Gaussian, Inc. access to this program.  By using this program,
 the user acknowledges that Gaussian, Inc. is engaged in the
 business of creating and licensing software in the field of
 computational chemistry and represents and warrants to the
 licensee that it is not a competitor of Gaussian, Inc. and that
 it will not use this program in any manner prohibited above.
 ---------------------------------------------------------------
  

 Cite this work as:
 Gaussian 09, Revision A.01,
 M. J. Frisch, G. W. Trucks, H. B. Schlegel, G. E. Scuseria, 
 M. A. Robb, J. R. Cheeseman, G. Scalmani, V. Barone, B. Mennucci, 
 G. A. Petersson, H. Nakatsuji, M. Caricato, X. Li, H. P. Hratchian, 
 A. F. Izmaylov, J. Bloino, G. Zheng, J. L. Sonnenberg, M. Hada, 
 M. Ehara, K. Toyota, R. Fukuda, J. Hasegawa, M. Ishida, T. Nakajima, 
 Y. Honda, O. Kitao, H. Nakai, T. Vreven, J. A. Montgomery, Jr., 
 J. E. Peralta, F. Ogliaro, M. Bearpark, J. J. Heyd, E. Brothers, 
 K. N. Kudin, V. N. Staroverov, R. Kobayashi, J. Normand, 
 K. Raghavachari, A. Rendell, J. C. Burant, S. S. Iyengar, J. Tomasi, 
 M. Cossi, N. Rega, J. M. Millam, M. Klene, J. E. Knox, J. B. Cross, 
 V. Bakken, C. Adamo, J. Jaramillo, R. Gomperts, R. E. Stratmann, 
 O. Yazyev, A. J. Austin, R. Cammi, C. Pomelli, J. W. Ochterski, 
 R. L. Martin, K. Morokuma, V. G. Zakrzewski, G. A. Voth, 
 P. Salvador, J. J. Dannenberg, S. Dapprich, A. D. Daniels, 
 O. Farkas, J. B. Foresman, J. V. Ortiz, J. Cioslowski, 
 and D. J. Fox, Gaussian, Inc., Wallingford CT, 2009.
 
 ******************************************
 Gaussian 09:  EM64L-G09RevA.01  8-May-2009
                26-Oct-2024 
 ******************************************
 %mem=206GB
 %nproc=20
 Will use up to   20 processors via shared memory.
 %chk=5-base3.chk
 --------------------------------------------------
 # opt freq=noraman hf/6-31G(d,p) geom=connectivity
 --------------------------------------------------
 1/18=20,19=15,38=1,57=2/1,3;
 2/9=110,12=2,17=6,18=5,40=1/2;
 3/5=1,6=6,7=101,11=9,16=1,25=1,30=1,71=1/1,2,3;
 4//1;
 5/5=2,38=5/2;
 6/7=2,8=2,9=2,10=2,28=1/1;
 7//1,2,3,16;
 1/18=20,19=15/3(2);
 2/9=110/2;
 99//99;
 2/9=110/2;
 3/5=1,6=6,7=101,11=9,16=1,25=1,30=1,71=1/1,2,3;
 4/5=5,16=3/1;
 5/5=2,38=5/2;
 7//1,2,3,16;
 1/18=20,19=15/3(-5);
 2/9=110/2;
 6/7=2,8=2,9=2,10=2,19=2,28=1/1;
 99/9=1/99;
 -------------------
 Title Card Required
 -------------------
 Symbolic Z-matrix:
 Charge =  0 Multiplicity = 1
 C                    -2.1124   -1.70543   0. 
 C                    -1.43713  -0.53045   0. 
 C                     0.10287  -0.53045   0. 
 H                     0.63603  -1.45815   0. 
 C                     0.78511   0.6405    0. 
 H                     0.25747   1.57135   0. 
 H                     1.8551    0.63414   0. 
 F                    -1.43972  -2.8759    0. 
 Cl                   -2.31411   0.9955    0. 
 H                    -3.1824   -1.70543   0. 
 

 GradGradGradGradGradGradGradGradGradGradGradGradGradGradGradGradGradGrad
 Berny optimization.
 Initialization pass.
                           ----------------------------
                           !    Initial Parameters    !
                           ! (Angstroms and Degrees)  !
 --------------------------                            --------------------------
 ! Name  Definition              Value          Derivative Info.                !
 --------------------------------------------------------------------------------
 ! R1    R(1,2)                  1.3552         estimate D2E/DX2                !
 ! R2    R(1,8)                  1.35           estimate D2E/DX2                !
 ! R3    R(1,10)                 1.07           estimate D2E/DX2                !
 ! R4    R(2,3)                  1.54           estimate D2E/DX2                !
 ! R5    R(2,9)                  1.76           estimate D2E/DX2                !
 ! R6    R(3,4)                  1.07           estimate D2E/DX2                !
 ! R7    R(3,5)                  1.3552         estimate D2E/DX2                !
 ! R8    R(5,6)                  1.07           estimate D2E/DX2                !
 ! R9    R(5,7)                  1.07           estimate D2E/DX2                !
 ! A1    A(2,1,8)              120.2269         estimate D2E/DX2                !
 ! A2    A(2,1,10)             119.8865         estimate D2E/DX2                !
 ! A3    A(8,1,10)             119.8865         estimate D2E/DX2                !
 ! A4    A(1,2,3)              119.8865         estimate D2E/DX2                !
 ! A5    A(1,2,9)              120.2269         estimate D2E/DX2                !
 ! A6    A(3,2,9)              119.8865         estimate D2E/DX2                !
 ! A7    A(2,3,4)              119.8865         estimate D2E/DX2                !
 ! A8    A(2,3,5)              120.2269         estimate D2E/DX2                !
 ! A9    A(4,3,5)              119.8865         estimate D2E/DX2                !
 ! A10   A(3,5,6)              120.2269         estimate D2E/DX2                !
 ! A11   A(3,5,7)              119.8865         estimate D2E/DX2                !
 ! A12   A(6,5,7)              119.8865         estimate D2E/DX2                !
 ! D1    D(8,1,2,3)              0.0            estimate D2E/DX2                !
 ! D2    D(8,1,2,9)            180.0            estimate D2E/DX2                !
 ! D3    D(10,1,2,3)           180.0            estimate D2E/DX2                !
 ! D4    D(10,1,2,9)             0.0            estimate D2E/DX2                !
 ! D5    D(1,2,3,4)              0.0            estimate D2E/DX2                !
 ! D6    D(1,2,3,5)            180.0            estimate D2E/DX2                !
 ! D7    D(9,2,3,4)            180.0            estimate D2E/DX2                !
 ! D8    D(9,2,3,5)              0.0            estimate D2E/DX2                !
 ! D9    D(2,3,5,6)              0.0            estimate D2E/DX2                !
 ! D10   D(2,3,5,7)            180.0            estimate D2E/DX2                !
 ! D11   D(4,3,5,6)            180.0            estimate D2E/DX2                !
 ! D12   D(4,3,5,7)              0.0            estimate D2E/DX2                !
 --------------------------------------------------------------------------------
 Trust Radius=3.00D-01 FncErr=1.00D-07 GrdErr=1.00D-07
 Number of steps in this run=  43 maximum allowed number of steps= 100.
 GradGradGradGradGradGradGradGradGradGradGradGradGradGradGradGradGradGrad

                          Input orientation:                          
 ---------------------------------------------------------------------
 Center     Atomic      Atomic             Coordinates (Angstroms)
 Number     Number       Type             X           Y           Z
 ---------------------------------------------------------------------
      1          6           0       -2.112403   -1.705426    0.000000
      2          6           0       -1.437129   -0.530449    0.000000
      3          6           0        0.102871   -0.530449    0.000000
      4          1           0        0.636035   -1.458154    0.000000
      5          6           0        0.785114    0.640495    0.000000
      6          1           0        0.257472    1.571352    0.000000
      7          1           0        1.855096    0.634138    0.000000
      8          9           0       -1.439720   -2.875895    0.000000
      9         17           0       -2.314109    0.995496    0.000000
     10          1           0       -3.182403   -1.705426    0.000000
 ---------------------------------------------------------------------
                    Distance matrix (angstroms):
                    1          2          3          4          5
     1  C    0.000000
     2  C    1.355200   0.000000
     3  C    2.507591   1.540000   0.000000
     4  H    2.759539   2.271265   1.070000   0.000000
     5  C    3.728131   2.511867   1.355200   2.103938   0.000000
     6  H    4.043956   2.699859   2.107479   3.053066   1.070000
     7  H    4.605932   3.492135   2.103938   2.421527   1.070000
     8  F    1.350000   2.345448   2.807259   2.513712   4.161117
     9  Cl   2.708443   1.760000   2.858373   3.837153   3.119488
    10  H    1.070000   2.103938   3.489068   3.826436   4.609181
                    6          7          8          9         10
     6  H    0.000000
     7  H    1.852234   0.000000
     8  F    4.760091   4.814161   0.000000
     9  Cl   2.635268   4.184835   3.968907   0.000000
    10  H    4.750791   5.554274   2.099272   2.837061   0.000000
 Stoichiometry    C4H4ClF
 Framework group  CS[SG(C4H4ClF)]
 Deg. of freedom    17
 Full point group                 CS      NOp   2
 Largest Abelian subgroup         CS      NOp   2
 Largest concise Abelian subgroup C1      NOp   1
                         Standard orientation:                         
 ---------------------------------------------------------------------
 Center     Atomic      Atomic             Coordinates (Angstroms)
 Number     Number       Type             X           Y           Z
 ---------------------------------------------------------------------
      1          6           0       -1.369017   -0.695955    0.000000
      2          6           0       -0.198072   -0.013712    0.000000
      3          6           0        1.137129   -0.781069    0.000000
      4          1           0        1.137129   -1.851069    0.000000
      5          6           0        2.312107   -0.105794    0.000000
      6          1           0        2.318464    0.964187    0.000000
      7          1           0        3.236627   -0.644461    0.000000
      8          9           0       -1.369017   -2.045955    0.000000
      9         17           0       -0.198072    1.746289    0.000000
     10          1           0       -2.296722   -0.162791    0.000000
 ---------------------------------------------------------------------
 Rotational constants (GHZ):      3.6094964      2.2351042      1.3803510
 Standard basis: 6-31G(d,p) (6D, 7F)
 There are    85 symmetry adapted basis functions of A'  symmetry.
 There are    29 symmetry adapted basis functions of A"  symmetry.
 Integral buffers will be    131072 words long.
 Raffenetti 1 integral format.
 Two-electron integral symmetry is turned on.
   114 basis functions,   220 primitive gaussians,   114 cartesian basis functions
    27 alpha electrons       27 beta electrons
       nuclear repulsion energy       262.2206758704 Hartrees.
 NAtoms=   10 NActive=   10 NUniq=   10 SFac= 7.50D-01 NAtFMM=   80 NAOKFM=F Big=F
 One-electron integrals computed using PRISM.
 NBasis=   114 RedAO= T  NBF=    85    29
 NBsUse=   114 1.00D-06 NBFU=    85    29
 Harris functional with IExCor=  205 diagonalized for initial guess.
 ExpMin= 1.43D-01 ExpMax= 2.52D+04 ExpMxC= 3.78D+03 IAcc=1 IRadAn=         1 AccDes= 0.00D+00
 HarFok:  IExCor=  205 AccDes= 0.00D+00 IRadAn=         1 IDoV= 1
 ScaDFX=  1.000000  1.000000  1.000000  1.000000
 FoFCou: FMM=F IPFlag=           0 FMFlag=      100000 FMFlg1=           0
         NFxFlg=           0 DoJE=T BraDBF=F KetDBF=T FulRan=T
         Omega=  0.000000  0.000000  1.000000  0.000000  0.000000 ICntrl=     500 IOpCl=  0
         NMat0=    1 NMatS0=    1 NMatT0=    0 NMatD0=    1 NMtDS0=    0 NMtDT0=    0
         I1Cent=           4 NGrid=           0.
 Petite list used in FoFCou.
 Initial guess orbital symmetries:
       Occupied  (A') (A') (A') (A') (A') (A') (A') (A') (A') (A")
                 (A') (A') (A') (A') (A') (A') (A') (A') (A') (A')
                 (A") (A') (A") (A') (A") (A') (A")
       Virtual   (A") (A') (A") (A') (A') (A') (A') (A') (A') (A')
                 (A') (A') (A') (A") (A') (A') (A') (A") (A") (A')
                 (A') (A') (A") (A") (A') (A') (A') (A') (A') (A")
                 (A') (A") (A') (A') (A') (A') (A') (A') (A") (A')
                 (A") (A") (A') (A') (A") (A') (A") (A") (A') (A')
                 (A') (A") (A') (A') (A') (A") (A') (A') (A') (A')
                 (A") (A") (A') (A') (A") (A') (A") (A") (A') (A")
                 (A') (A") (A') (A') (A') (A') (A') (A') (A') (A')
                 (A') (A') (A') (A') (A') (A') (A')
 The electronic state of the initial guess is 1-A'.
 Requested convergence on RMS density matrix=1.00D-08 within 128 cycles.
 Requested convergence on MAX density matrix=1.00D-06.
 Requested convergence on             energy=1.00D-06.
 No special actions if energy rises.
 Keep R1 ints in memory in canonical form, NReq=22367610.
 SCF Done:  E(RHF) =  -712.659099493     A.U. after   13 cycles
             Convg  =    0.6100D-08             -V/T =  2.0014

 **********************************************************************

            Population analysis using the SCF density.

 **********************************************************************

 Orbital symmetries:
       Occupied  (A') (A') (A') (A') (A') (A') (A') (A') (A') (A")
                 (A') (A') (A') (A') (A') (A') (A') (A') (A") (A')
                 (A') (A') (A") (A') (A') (A") (A")
       Virtual   (A") (A') (A") (A') (A') (A') (A') (A') (A') (A')
                 (A') (A') (A") (A') (A') (A') (A') (A") (A") (A')
                 (A') (A") (A") (A') (A') (A') (A') (A') (A') (A')
                 (A") (A") (A') (A') (A') (A') (A') (A') (A') (A")
                 (A") (A') (A') (A") (A") (A") (A') (A") (A') (A')
                 (A') (A") (A') (A') (A') (A") (A') (A') (A') (A')
                 (A") (A') (A") (A') (A") (A') (A") (A") (A') (A")
                 (A") (A') (A') (A') (A') (A') (A') (A') (A') (A')
                 (A') (A') (A') (A') (A') (A') (A')
 The electronic state is 1-A'.
 Alpha  occ. eigenvalues -- -104.84374 -26.32992 -11.34570 -11.32240 -11.26292
 Alpha  occ. eigenvalues --  -11.24034 -10.57633  -8.04574  -8.04239  -8.04225
 Alpha  occ. eigenvalues --   -1.63413  -1.17110  -1.05316  -1.01068  -0.84902
 Alpha  occ. eigenvalues --   -0.76770  -0.73598  -0.70434  -0.69916  -0.61813
 Alpha  occ. eigenvalues --   -0.59513  -0.56855  -0.52389  -0.52278  -0.46687
 Alpha  occ. eigenvalues --   -0.41556  -0.33259
 Alpha virt. eigenvalues --    0.11284   0.18746   0.22923   0.27006   0.27903
 Alpha virt. eigenvalues --    0.29827   0.31534   0.36925   0.43284   0.48403
 Alpha virt. eigenvalues --    0.51975   0.57873   0.62498   0.63333   0.66046
 Alpha virt. eigenvalues --    0.71755   0.73432   0.75093   0.78491   0.79298
 Alpha virt. eigenvalues --    0.83698   0.88041   0.89562   0.91499   0.99369
 Alpha virt. eigenvalues --    1.05796   1.08041   1.09401   1.11446   1.13301
 Alpha virt. eigenvalues --    1.13574   1.16513   1.20599   1.23184   1.24606
 Alpha virt. eigenvalues --    1.32114   1.35112   1.38477   1.48850   1.49134
 Alpha virt. eigenvalues --    1.57071   1.60356   1.63234   1.63418   1.71203
 Alpha virt. eigenvalues --    1.72300   1.72617   1.84331   1.95987   2.05209
 Alpha virt. eigenvalues --    2.09170   2.10970   2.16937   2.21306   2.23970
 Alpha virt. eigenvalues --    2.26298   2.29311   2.34476   2.35930   2.37432
 Alpha virt. eigenvalues --    2.42293   2.52336   2.52854   2.65275   2.71895
 Alpha virt. eigenvalues --    2.81447   2.81851   2.86555   2.88904   2.90744
 Alpha virt. eigenvalues --    3.00114   3.00422   3.07464   3.16352   3.30021
 Alpha virt. eigenvalues --    3.32726   3.45527   3.66477   3.79437   3.86942
 Alpha virt. eigenvalues --    4.03708   4.44134   4.56936   4.66113   4.76813
 Alpha virt. eigenvalues --    4.96756   5.10050
          Condensed to atoms (all electrons):
              1          2          3          4          5          6
     1  C    4.553486   0.594793  -0.054122  -0.001241   0.001581   0.000092
     2  C    0.594793   5.291559   0.336058  -0.031441  -0.057589  -0.005832
     3  C   -0.054122   0.336058   4.893898   0.410281   0.624349  -0.039108
     4  H   -0.001241  -0.031441   0.410281   0.470835  -0.030758   0.002593
     5  C    0.001581  -0.057589   0.624349  -0.030758   4.925119   0.413255
     6  H    0.000092  -0.005832  -0.039108   0.002593   0.413255   0.499662
     7  H   -0.000060   0.003115  -0.037050  -0.002795   0.405048  -0.024811
     8  F    0.259591  -0.048713   0.006045   0.002619   0.000418  -0.000002
     9  Cl  -0.060985   0.209786  -0.051590   0.001049  -0.001072  -0.003561
    10  H    0.410499  -0.067477   0.003513   0.000107  -0.000034  -0.000001
              7          8          9         10
     1  C   -0.000060   0.259591  -0.060985   0.410499
     2  C    0.003115  -0.048713   0.209786  -0.067477
     3  C   -0.037050   0.006045  -0.051590   0.003513
     4  H   -0.002795   0.002619   0.001049   0.000107
     5  C    0.405048   0.000418  -0.001072  -0.000034
     6  H   -0.024811  -0.000002  -0.003561  -0.000001
     7  H    0.513624  -0.000002   0.000249   0.000001
     8  F   -0.000002   9.169256   0.000993  -0.024359
     9  Cl   0.000249   0.000993  16.887157   0.003661
    10  H    0.000001  -0.024359   0.003661   0.501217
 Mulliken atomic charges:
              1
     1  C    0.296366
     2  C   -0.224258
     3  C   -0.092274
     4  H    0.178752
     5  C   -0.280318
     6  H    0.157712
     7  H    0.142680
     8  F   -0.365846
     9  Cl   0.014313
    10  H    0.172874
 Sum of Mulliken atomic charges =   0.00000
 Mulliken charges with hydrogens summed into heavy atoms:
              1
     1  C    0.469239
     2  C   -0.224258
     3  C    0.086478
     5  C    0.020074
     8  F   -0.365846
     9  Cl   0.014313
 Sum of Mulliken charges with hydrogens summed into heavy atoms =   0.00000
 Electronic spatial extent (au):  <R**2>=            778.0384
 Charge=              0.0000 electrons
 Dipole moment (field-independent basis, Debye):
    X=              0.1642    Y=             -0.0840    Z=              0.0000  Tot=              0.1844
 Quadrupole moment (field-independent basis, Debye-Ang):
   XX=            -35.9118   YY=            -43.3151   ZZ=            -44.0091
   XY=             -1.7627   XZ=              0.0000   YZ=              0.0000
 Traceless Quadrupole moment (field-independent basis, Debye-Ang):
   XX=              5.1669   YY=             -2.2365   ZZ=             -2.9304
   XY=             -1.7627   XZ=              0.0000   YZ=              0.0000
 Octapole moment (field-independent basis, Debye-Ang**2):
  XXX=            -10.1003  YYY=             -2.4389  ZZZ=              0.0000  XYY=              4.4491
  XXY=             -2.6103  XXZ=              0.0000  XZZ=             -6.6254  YZZ=             -3.0320
  YYZ=              0.0000  XYZ=              0.0000
 Hexadecapole moment (field-independent basis, Debye-Ang**3):
 XXXX=           -402.6781 YYYY=           -431.5208 ZZZZ=            -45.2258 XXXY=            -28.1495
 XXXZ=              0.0000 YYYX=            -34.2134 YYYZ=              0.0000 ZZZX=              0.0000
 ZZZY=              0.0000 XXYY=           -151.7654 XXZZ=            -90.9715 YYZZ=            -83.6327
 XXYZ=              0.0000 YYXZ=              0.0000 ZZXY=             -5.1727
 N-N= 2.622206758704D+02 E-N=-2.213994974524D+03  KE= 7.116764376507D+02
 Symmetry A'   KE= 6.554217881637D+02
 Symmetry A"   KE= 5.625464948697D+01
 Calling FoFJK, ICntrl=      2127 FMM=F ISym2X=1 I1Cent= 0 IOpClX= 0 NMat=1 NMatS=1 NMatT=0.
 ***** Axes restored to original set *****
 -------------------------------------------------------------------
 Center     Atomic                   Forces (Hartrees/Bohr)
 Number     Number              X              Y              Z
 -------------------------------------------------------------------
      1        6           0.029566542    0.045374832    0.000000000
      2        6           0.024488927   -0.052188700    0.000000000
      3        6          -0.017090406    0.062569973    0.000000000
      4        1          -0.007280071   -0.005773646    0.000000000
      5        6          -0.022412562   -0.044172454    0.000000000
      6        1           0.004002799    0.003891181    0.000000000
      7        1           0.003224913    0.002562859    0.000000000
      8        9          -0.019931732    0.021632555    0.000000000
      9       17           0.006072242   -0.017291165    0.000000000
     10        1          -0.000640652   -0.016605433    0.000000000
 -------------------------------------------------------------------
 Cartesian Forces:  Max     0.062569973 RMS     0.022006629

 GradGradGradGradGradGradGradGradGradGradGradGradGradGradGradGradGradGrad
 Berny optimization.
 Internal  Forces:  Max     0.048180841 RMS     0.015994561
 Search for a local minimum.
 Step number   1 out of a maximum of   43
 All quantities printed in internal units (Hartrees-Bohrs-Radians)
 Mixed Optimization -- RFO/linear search
 Second derivative matrix not updated -- first step.
     Eigenvalues ---    0.00237   0.01459   0.01463   0.02681   0.02681
     Eigenvalues ---    0.02681   0.02681   0.16000   0.16000   0.16000
     Eigenvalues ---    0.16000   0.22000   0.22000   0.25000   0.25000
     Eigenvalues ---    0.28519   0.29539   0.37230   0.37230   0.37230
     Eigenvalues ---    0.37230   0.53930   0.53930   0.550211000.00000
     Eigenvalues --- 1000.000001000.000001000.000001000.000001000.00000
     Eigenvalues --- 1000.000001000.000001000.00000
 RFO step:  Lambda=-2.27994413D-02 EMin= 2.36824121D-03
 Linear search not attempted -- first point.
 Iteration  1 RMS(Cart)=  0.06061154 RMS(Int)=  0.00190214
 Iteration  2 RMS(Cart)=  0.00296855 RMS(Int)=  0.00000114
 Iteration  3 RMS(Cart)=  0.00000128 RMS(Int)=  0.00000000
 Iteration  4 RMS(Cart)=  0.00000000 RMS(Int)=  0.00000000
 ClnCor:  largest displacement from symmetrization is 9.93D-16 for atom     4.
 Variable       Old X    -DE/DX   Delta X   Delta X   Delta X     New X
                                 (Linear)    (Quad)   (Total)
    R1        2.56096  -0.04818   0.00000  -0.08572  -0.08572   2.47524
    R2        2.55113  -0.02869   0.00000  -0.05006  -0.05006   2.50107
    R3        2.02201   0.00064   0.00000   0.00162   0.00162   2.02363
    R4        2.91018  -0.03956   0.00000  -0.12843  -0.12843   2.78175
    R5        3.32592  -0.01802   0.00000  -0.05662  -0.05662   3.26929
    R6        2.02201   0.00138   0.00000   0.00349   0.00349   2.02550
    R7        2.56096  -0.04023   0.00000  -0.07158  -0.07158   2.48938
    R8        2.02201   0.00141   0.00000   0.00357   0.00357   2.02558
    R9        2.02201   0.00321   0.00000   0.00812   0.00812   2.03013
    A1        2.09836  -0.00013   0.00000  -0.00055  -0.00055   2.09780
    A2        2.09241   0.01686   0.00000   0.09211   0.09211   2.18453
    A3        2.09241  -0.01672   0.00000  -0.09156  -0.09156   2.00085
    A4        2.09241   0.01452   0.00000   0.05324   0.05324   2.14565
    A5        2.09836  -0.01283   0.00000  -0.04705  -0.04705   2.05131
    A6        2.09241  -0.00169   0.00000  -0.00619  -0.00619   2.08622
    A7        2.09241  -0.01930   0.00000  -0.09203  -0.09203   2.00038
    A8        2.09836   0.02001   0.00000   0.08242   0.08242   2.18078
    A9        2.09241  -0.00072   0.00000   0.00961   0.00961   2.10202
   A10        2.09836   0.00554   0.00000   0.03031   0.03031   2.12867
   A11        2.09241  -0.00016   0.00000  -0.00087  -0.00087   2.09154
   A12        2.09241  -0.00538   0.00000  -0.02943  -0.02943   2.06298
    D1        0.00000   0.00000   0.00000   0.00000   0.00000   0.00000
    D2        3.14159   0.00000   0.00000   0.00000   0.00000   3.14159
    D3        3.14159   0.00000   0.00000   0.00000   0.00000   3.14159
    D4        0.00000   0.00000   0.00000   0.00000   0.00000   0.00000
    D5        0.00000   0.00000   0.00000   0.00000   0.00000   0.00000
    D6        3.14159   0.00000   0.00000   0.00000   0.00000   3.14159
    D7        3.14159   0.00000   0.00000   0.00000   0.00000   3.14159
    D8        0.00000   0.00000   0.00000   0.00000   0.00000   0.00000
    D9        0.00000   0.00000   0.00000   0.00000   0.00000   0.00000
   D10        3.14159   0.00000   0.00000   0.00000   0.00000   3.14159
   D11        3.14159   0.00000   0.00000   0.00000   0.00000   3.14159
   D12        0.00000   0.00000   0.00000   0.00000   0.00000   0.00000
         Item               Value     Threshold  Converged?
 Maximum Force            0.048181     0.000450     NO 
 RMS     Force            0.015995     0.000300     NO 
 Maximum Displacement     0.169631     0.001800     NO 
 RMS     Displacement     0.061176     0.001200     NO 
 Predicted change in Energy=-1.224180D-02
 GradGradGradGradGradGradGradGradGradGradGradGradGradGradGradGradGradGrad

                          Input orientation:                          
 ---------------------------------------------------------------------
 Center     Atomic      Atomic             Coordinates (Angstroms)
 Number     Number       Type             X           Y           Z
 ---------------------------------------------------------------------
      1          6           0       -2.077253   -1.666466    0.000000
      2          6           0       -1.409675   -0.539513    0.000000
      3          6           0        0.061181   -0.480555    0.000000
      4          1           0        0.546270   -1.436350    0.000000
      5          6           0        0.771962    0.628556    0.000000
      6          1           0        0.312487    1.596973    0.000000
      7          1           0        1.844962    0.575747    0.000000
      8          9           0       -1.432308   -2.822198    0.000000
      9         17           0       -2.322026    0.930398    0.000000
     10          1           0       -3.144776   -1.750911    0.000000
 ---------------------------------------------------------------------
                    Distance matrix (angstroms):
                    1          2          3          4          5
     1  C    0.000000
     2  C    1.309841   0.000000
     3  C    2.445257   1.472037   0.000000
     4  H    2.633595   2.151752   1.071846   0.000000
     5  C    3.658572   2.474656   1.317322   2.077203   0.000000
     6  H    4.044859   2.744160   2.092672   3.042318   1.071890
     7  H    4.517885   3.440416   2.073077   2.394814   1.074299
     8  F    1.323507   2.282798   2.777373   2.415646   4.094693
     9  Cl   2.608374   1.730036   2.769561   3.718685   3.108677
    10  H    1.070858   2.116143   3.448473   3.704425   4.582870
                    6          7          8          9         10
     6  H    0.000000
     7  H    1.841570   0.000000
     8  F    4.751146   4.720861   0.000000
     9  Cl   2.717533   4.182053   3.856628   0.000000
    10  H    4.812587   5.505527   2.019951   2.804699   0.000000
 Stoichiometry    C4H4ClF
 Framework group  CS[SG(C4H4ClF)]
 Deg. of freedom    17
 Full point group                 CS      NOp   2
 Largest Abelian subgroup         CS      NOp   2
 Largest concise Abelian subgroup C1      NOp   1
                         Standard orientation:                         
 ---------------------------------------------------------------------
 Center     Atomic      Atomic             Coordinates (Angstroms)
 Number     Number       Type             X           Y           Z
 ---------------------------------------------------------------------
      1          6           0       -0.435715    1.413793    0.000000
      2          6           0        0.000000    0.178546    0.000000
      3          6           0       -0.898841   -0.987206    0.000000
      4          1           0       -1.943131   -0.745726    0.000000
      5          6           0       -0.504538   -2.244132    0.000000
      6          1           0        0.532992   -2.513356    0.000000
      7          1           0       -1.233727   -3.033056    0.000000
      8          9           0       -1.735927    1.661018    0.000000
      9         17           0        1.712769   -0.065273    0.000000
     10          1           0        0.184707    2.286612    0.000000
 ---------------------------------------------------------------------
 Rotational constants (GHZ):      3.6796675      2.3686371      1.4410314
 Standard basis: 6-31G(d,p) (6D, 7F)
 There are    85 symmetry adapted basis functions of A'  symmetry.
 There are    29 symmetry adapted basis functions of A"  symmetry.
 Integral buffers will be    131072 words long.
 Raffenetti 1 integral format.
 Two-electron integral symmetry is turned on.
   114 basis functions,   220 primitive gaussians,   114 cartesian basis functions
    27 alpha electrons       27 beta electrons
       nuclear repulsion energy       268.0020139898 Hartrees.
 NAtoms=   10 NActive=   10 NUniq=   10 SFac= 7.50D-01 NAtFMM=   80 NAOKFM=F Big=F
 One-electron integrals computed using PRISM.
 NBasis=   114 RedAO= T  NBF=    85    29
 NBsUse=   114 1.00D-06 NBFU=    85    29
 Initial guess read from the read-write file.
 B after Tr=     0.000000    0.000000    0.000000
         Rot=    1.000000    0.000000    0.000000    0.000000 Ang=   0.00 deg.
 Initial guess orbital symmetries:
       Occupied  (A') (A') (A') (A') (A') (A') (A') (A') (A') (A")
                 (A') (A') (A') (A') (A') (A') (A') (A') (A") (A')
                 (A') (A') (A") (A') (A') (A") (A")
       Virtual   (A") (A') (A") (A') (A') (A') (A') (A') (A') (A')
                 (A') (A') (A") (A') (A') (A') (A') (A") (A") (A')
                 (A') (A") (A") (A') (A') (A') (A') (A') (A') (A')
                 (A") (A") (A') (A') (A') (A') (A') (A') (A') (A")
                 (A") (A') (A') (A") (A") (A") (A') (A") (A') (A')
                 (A') (A") (A') (A') (A') (A") (A') (A') (A') (A')
                 (A") (A') (A") (A') (A") (A') (A") (A") (A') (A")
                 (A") (A') (A') (A') (A') (A') (A') (A') (A') (A')
                 (A') (A') (A') (A') (A') (A') (A')
 Harris functional with IExCor=  205 diagonalized for initial guess.
 ExpMin= 1.43D-01 ExpMax= 2.52D+04 ExpMxC= 3.78D+03 IAcc=1 IRadAn=         1 AccDes= 0.00D+00
 HarFok:  IExCor=  205 AccDes= 0.00D+00 IRadAn=         1 IDoV= 1
 ScaDFX=  1.000000  1.000000  1.000000  1.000000
 FoFCou: FMM=F IPFlag=           0 FMFlag=      100000 FMFlg1=           0
         NFxFlg=           0 DoJE=T BraDBF=F KetDBF=T FulRan=T
         Omega=  0.000000  0.000000  1.000000  0.000000  0.000000 ICntrl=     500 IOpCl=  0
         NMat0=    1 NMatS0=    1 NMatT0=    0 NMatD0=    1 NMtDS0=    0 NMtDT0=    0
         I1Cent=           4 NGrid=           0.
 Petite list used in FoFCou.
 Requested convergence on RMS density matrix=1.00D-08 within 128 cycles.
 Requested convergence on MAX density matrix=1.00D-06.
 Requested convergence on             energy=1.00D-06.
 No special actions if energy rises.
 Keep R1 ints in memory in canonical form, NReq=22367610.
 SCF Done:  E(RHF) =  -712.670742242     A.U. after   14 cycles
             Convg  =    0.5903D-08             -V/T =  2.0007
 Calling FoFJK, ICntrl=      2127 FMM=F ISym2X=1 I1Cent= 0 IOpClX= 0 NMat=1 NMatS=1 NMatT=0.
 ***** Axes restored to original set *****
 -------------------------------------------------------------------
 Center     Atomic                   Forces (Hartrees/Bohr)
 Number     Number              X              Y              Z
 -------------------------------------------------------------------
      1        6          -0.005325859   -0.003277119    0.000000000
      2        6           0.010277747    0.000832584    0.000000000
      3        6          -0.005752053    0.003479556    0.000000000
      4        1           0.000151108   -0.001991088    0.000000000
      5        6           0.003023135   -0.000709051    0.000000000
      6        1           0.001471074    0.001947647    0.000000000
      7        1           0.000254940    0.001777262    0.000000000
      8        9          -0.001423732   -0.004783590    0.000000000
      9       17          -0.003110061    0.005170301    0.000000000
     10        1           0.000433699   -0.002446501    0.000000000
 -------------------------------------------------------------------
 Cartesian Forces:  Max     0.010277747 RMS     0.003060071

 GradGradGradGradGradGradGradGradGradGradGradGradGradGradGradGradGradGrad
 Berny optimization.
 Using GEDIIS/GDIIS optimizer.
 Internal  Forces:  Max     0.012259108 RMS     0.003169012
 Search for a local minimum.
 Step number   2 out of a maximum of   43
 All quantities printed in internal units (Hartrees-Bohrs-Radians)
 Mixed Optimization -- RFO/linear search
 Update second derivatives using D2CorX and points    1    2
 DE= -1.16D-02 DEPred=-1.22D-02 R= 9.51D-01
 SS=  1.41D+00  RLast= 2.72D-01 DXNew= 5.0454D-01 8.1536D-01
 Trust test= 9.51D-01 RLast= 2.72D-01 DXMaxT set to 5.05D-01
 Use linear search instead of GDIIS.
     Eigenvalues ---    0.00237   0.01436   0.01524   0.02681   0.02681
     Eigenvalues ---    0.02681   0.02681   0.15253   0.16000   0.16000
     Eigenvalues ---    0.16093   0.20861   0.22169   0.24722   0.25027
     Eigenvalues ---    0.28327   0.30788   0.37196   0.37230   0.37230
     Eigenvalues ---    0.37248   0.53785   0.54842   0.633301000.00000
     Eigenvalues --- 1000.000001000.000001000.000001000.000001000.00000
     Eigenvalues --- 1000.000001000.000001000.00000
 RFO step:  Lambda=-9.55664328D-04 EMin= 2.36824121D-03
 Quartic linear search produced a step of -0.01310.
 Iteration  1 RMS(Cart)=  0.02261153 RMS(Int)=  0.00014514
 Iteration  2 RMS(Cart)=  0.00015861 RMS(Int)=  0.00000000
 Iteration  3 RMS(Cart)=  0.00000000 RMS(Int)=  0.00000000
 ClnCor:  largest displacement from symmetrization is 8.58D-15 for atom     7.
 Variable       Old X    -DE/DX   Delta X   Delta X   Delta X     New X
                                 (Linear)    (Quad)   (Total)
    R1        2.47524   0.01226   0.00112   0.01802   0.01914   2.49438
    R2        2.50107   0.00348   0.00066   0.00368   0.00434   2.50541
    R3        2.02363  -0.00024  -0.00002  -0.00055  -0.00057   2.02306
    R4        2.78175  -0.00067   0.00168  -0.00901  -0.00732   2.77442
    R5        3.26929   0.00603   0.00074   0.01714   0.01788   3.28717
    R6        2.02550   0.00184  -0.00005   0.00505   0.00501   2.03050
    R7        2.48938   0.00510   0.00094   0.00567   0.00661   2.49598
    R8        2.02558   0.00113  -0.00005   0.00317   0.00312   2.02870
    R9        2.03013   0.00017  -0.00011   0.00086   0.00075   2.03088
    A1        2.09780   0.00429   0.00001   0.01913   0.01914   2.11694
    A2        2.18453   0.00036  -0.00121   0.01073   0.00953   2.19405
    A3        2.00085  -0.00465   0.00120  -0.02986  -0.02866   1.97219
    A4        2.14565   0.00285  -0.00070   0.01398   0.01328   2.15893
    A5        2.05131  -0.00129   0.00062  -0.00752  -0.00690   2.04441
    A6        2.08622  -0.00156   0.00008  -0.00646  -0.00638   2.07985
    A7        2.00038  -0.00325   0.00121  -0.02074  -0.01954   1.98085
    A8        2.18078   0.00496  -0.00108   0.02648   0.02540   2.20618
    A9        2.10202  -0.00170  -0.00013  -0.00574  -0.00586   2.09616
   A10        2.12867   0.00171  -0.00040   0.01213   0.01174   2.14040
   A11        2.09154   0.00096   0.00001   0.00583   0.00584   2.09738
   A12        2.06298  -0.00267   0.00039  -0.01796  -0.01757   2.04541
    D1        0.00000   0.00000   0.00000   0.00000   0.00000   0.00000
    D2        3.14159   0.00000   0.00000   0.00000   0.00000   3.14159
    D3        3.14159   0.00000   0.00000   0.00000   0.00000   3.14159
    D4        0.00000   0.00000   0.00000   0.00000   0.00000   0.00000
    D5        0.00000   0.00000   0.00000   0.00000   0.00000   0.00000
    D6        3.14159   0.00000   0.00000   0.00000   0.00000   3.14159
    D7        3.14159   0.00000   0.00000   0.00000   0.00000   3.14159
    D8        0.00000   0.00000   0.00000   0.00000   0.00000   0.00000
    D9        0.00000   0.00000   0.00000   0.00000   0.00000   0.00000
   D10        3.14159   0.00000   0.00000   0.00000   0.00000   3.14159
   D11        3.14159   0.00000   0.00000   0.00000   0.00000   3.14159
   D12        0.00000   0.00000   0.00000   0.00000   0.00000   0.00000
         Item               Value     Threshold  Converged?
 Maximum Force            0.012259     0.000450     NO 
 RMS     Force            0.003169     0.000300     NO 
 Maximum Displacement     0.066014     0.001800     NO 
 RMS     Displacement     0.022563     0.001200     NO 
 Predicted change in Energy=-4.787577D-04
 GradGradGradGradGradGradGradGradGradGradGradGradGradGradGradGradGradGrad

                          Input orientation:                          
 ---------------------------------------------------------------------
 Center     Atomic      Atomic             Coordinates (Angstroms)
 Number     Number       Type             X           Y           Z
 ---------------------------------------------------------------------
      1          6           0       -2.081756   -1.677734    0.000000
      2          6           0       -1.408608   -0.542308    0.000000
      3          6           0        0.057494   -0.464556    0.000000
      4          1           0        0.537432   -1.425909    0.000000
      5          6           0        0.783983    0.638518    0.000000
      6          1           0        0.347420    1.619286    0.000000
      7          1           0        1.857007    0.578562    0.000000
      8          9           0       -1.458388   -2.847849    0.000000
      9         17           0       -2.335602    0.929607    0.000000
     10          1           0       -3.148159   -1.771935    0.000000
 ---------------------------------------------------------------------
                    Distance matrix (angstroms):
                    1          2          3          4          5
     1  C    0.000000
     2  C    1.319970   0.000000
     3  C    2.459307   1.468162   0.000000
     4  H    2.631266   2.137247   1.074496   0.000000
     5  C    3.684764   2.490342   1.320817   2.079098   0.000000
     6  H    4.095270   2.784982   2.103914   3.051118   1.073542
     7  H    4.539243   3.452621   2.079986   2.399830   1.074698
     8  F    1.325804   2.306078   2.824532   2.450553   4.145236
     9  Cl   2.619669   1.739497   2.769584   3.715209   3.133136
    10  H    1.070556   2.130263   3.462001   3.701800   4.612161
                    6          7          8          9         10
     6  H    0.000000
     7  H    1.833565   0.000000
     8  F    4.818323   4.767823   0.000000
     9  Cl   2.770246   4.207280   3.877973   0.000000
    10  H    4.870262   5.529605   2.003228   2.821095   0.000000
 Stoichiometry    C4H4ClF
 Framework group  CS[SG(C4H4ClF)]
 Deg. of freedom    17
 Full point group                 CS      NOp   2
 Largest Abelian subgroup         CS      NOp   2
 Largest concise Abelian subgroup C1      NOp   1
                         Standard orientation:                         
 ---------------------------------------------------------------------
 Center     Atomic      Atomic             Coordinates (Angstroms)
 Number     Number       Type             X           Y           Z
 ---------------------------------------------------------------------
      1          6           0       -0.399707    1.430019    0.000000
      2          6           0        0.000000    0.172023    0.000000
      3          6           0       -0.917467   -0.974168    0.000000
      4          1           0       -1.954465   -0.692784    0.000000
      5          6           0       -0.577403   -2.250458    0.000000
      6          1           0        0.445227   -2.577140    0.000000
      7          1           0       -1.336126   -3.011585    0.000000
      8          9           0       -1.687982    1.743237    0.000000
      9         17           0        1.715596   -0.115347    0.000000
     10          1           0        0.239531    2.288776    0.000000
 ---------------------------------------------------------------------
 Rotational constants (GHZ):      3.6348532      2.3349597      1.4216921
 Standard basis: 6-31G(d,p) (6D, 7F)
 There are    85 symmetry adapted basis functions of A'  symmetry.
 There are    29 symmetry adapted basis functions of A"  symmetry.
 Integral buffers will be    131072 words long.
 Raffenetti 1 integral format.
 Two-electron integral symmetry is turned on.
   114 basis functions,   220 primitive gaussians,   114 cartesian basis functions
    27 alpha electrons       27 beta electrons
       nuclear repulsion energy       266.6327773633 Hartrees.
 NAtoms=   10 NActive=   10 NUniq=   10 SFac= 7.50D-01 NAtFMM=   80 NAOKFM=F Big=F
 One-electron integrals computed using PRISM.
 NBasis=   114 RedAO= T  NBF=    85    29
 NBsUse=   114 1.00D-06 NBFU=    85    29
 Initial guess read from the read-write file.
 B after Tr=     0.000000    0.000000    0.000000
         Rot=    1.000000    0.000000    0.000000    0.000000 Ang=   0.00 deg.
 Initial guess orbital symmetries:
       Occupied  (A') (A') (A') (A') (A') (A') (A') (A') (A') (A")
                 (A') (A') (A') (A') (A') (A') (A') (A') (A") (A')
                 (A') (A') (A") (A') (A') (A") (A")
       Virtual   (A") (A') (A") (A') (A') (A') (A') (A') (A') (A')
                 (A') (A') (A") (A') (A') (A') (A') (A") (A") (A')
                 (A') (A") (A") (A') (A') (A') (A') (A') (A') (A")
                 (A') (A") (A') (A') (A') (A') (A') (A') (A") (A')
                 (A") (A') (A") (A') (A") (A") (A') (A") (A') (A')
                 (A") (A') (A') (A') (A') (A") (A') (A') (A') (A')
                 (A") (A") (A') (A') (A") (A') (A") (A") (A') (A")
                 (A") (A') (A') (A') (A') (A') (A') (A') (A') (A')
                 (A') (A') (A') (A') (A') (A') (A')
 Harris functional with IExCor=  205 diagonalized for initial guess.
 ExpMin= 1.43D-01 ExpMax= 2.52D+04 ExpMxC= 3.78D+03 IAcc=1 IRadAn=         1 AccDes= 0.00D+00
 HarFok:  IExCor=  205 AccDes= 0.00D+00 IRadAn=         1 IDoV= 1
 ScaDFX=  1.000000  1.000000  1.000000  1.000000
 FoFCou: FMM=F IPFlag=           0 FMFlag=      100000 FMFlg1=           0
         NFxFlg=           0 DoJE=T BraDBF=F KetDBF=T FulRan=T
         Omega=  0.000000  0.000000  1.000000  0.000000  0.000000 ICntrl=     500 IOpCl=  0
         NMat0=    1 NMatS0=    1 NMatT0=    0 NMatD0=    1 NMtDS0=    0 NMtDT0=    0
         I1Cent=           4 NGrid=           0.
 Petite list used in FoFCou.
 Requested convergence on RMS density matrix=1.00D-08 within 128 cycles.
 Requested convergence on MAX density matrix=1.00D-06.
 Requested convergence on             energy=1.00D-06.
 No special actions if energy rises.
 Keep R1 ints in memory in canonical form, NReq=22367610.
 SCF Done:  E(RHF) =  -712.671133006     A.U. after   11 cycles
             Convg  =    0.9046D-08             -V/T =  2.0008
 Calling FoFJK, ICntrl=      2127 FMM=F ISym2X=1 I1Cent= 0 IOpClX= 0 NMat=1 NMatS=1 NMatT=0.
 ***** Axes restored to original set *****
 -------------------------------------------------------------------
 Center     Atomic                   Forces (Hartrees/Bohr)
 Number     Number              X              Y              Z
 -------------------------------------------------------------------
      1        6           0.000016497    0.002484914    0.000000000
      2        6          -0.000073602   -0.004254038    0.000000000
      3        6          -0.000377219    0.000592413    0.000000000
      4        1           0.000675461   -0.000330034    0.000000000
      5        6          -0.000639414   -0.001208510    0.000000000
      6        1          -0.000050933    0.000247770    0.000000000
      7        1          -0.000143954    0.000062720    0.000000000
      8        9           0.001533979    0.000145983    0.000000000
      9       17          -0.000889103    0.001156472    0.000000000
     10        1          -0.000051711    0.001102312    0.000000000
 -------------------------------------------------------------------
 Cartesian Forces:  Max     0.004254038 RMS     0.001049029

 GradGradGradGradGradGradGradGradGradGradGradGradGradGradGradGradGradGrad
 Berny optimization.
 Using GEDIIS/GDIIS optimizer.
 Internal  Forces:  Max     0.003975601 RMS     0.000923504
 Search for a local minimum.
 Step number   3 out of a maximum of   43
 All quantities printed in internal units (Hartrees-Bohrs-Radians)
 Mixed Optimization -- En-DIIS/RFO-DIIS
 Update second derivatives using D2CorX and points    1    2    3
 DE= -3.91D-04 DEPred=-4.79D-04 R= 8.16D-01
 SS=  1.41D+00  RLast= 6.26D-02 DXNew= 8.4853D-01 1.8791D-01
 Trust test= 8.16D-01 RLast= 6.26D-02 DXMaxT set to 5.05D-01
 Use linear search instead of GDIIS.
     Eigenvalues ---    0.00237   0.01436   0.01530   0.02681   0.02681
     Eigenvalues ---    0.02681   0.02681   0.15267   0.16000   0.16013
     Eigenvalues ---    0.16783   0.20477   0.23112   0.24451   0.25085
     Eigenvalues ---    0.27906   0.30543   0.37042   0.37230   0.37231
     Eigenvalues ---    0.37245   0.53953   0.55347   0.707201000.00000
     Eigenvalues --- 1000.000001000.000001000.000001000.000001000.00000
     Eigenvalues --- 1000.000001000.000001000.00000
 RFO step:  Lambda=-3.75396637D-05 EMin= 2.36824121D-03
 Quartic linear search produced a step of -0.15117.
 Iteration  1 RMS(Cart)=  0.00383747 RMS(Int)=  0.00000549
 Iteration  2 RMS(Cart)=  0.00000549 RMS(Int)=  0.00000000
 Iteration  3 RMS(Cart)=  0.00000000 RMS(Int)=  0.00000000
 ClnCor:  largest displacement from symmetrization is 5.49D-15 for atom     7.
 Variable       Old X    -DE/DX   Delta X   Delta X   Delta X     New X
                                 (Linear)    (Quad)   (Total)
    R1        2.49438  -0.00398  -0.00289  -0.00228  -0.00518   2.48921
    R2        2.50541   0.00059  -0.00066   0.00192   0.00127   2.50667
    R3        2.02306  -0.00005   0.00009  -0.00022  -0.00013   2.02293
    R4        2.77442  -0.00057   0.00111  -0.00261  -0.00151   2.77292
    R5        3.28717   0.00145  -0.00270   0.00780   0.00509   3.29227
    R6        2.03050   0.00060  -0.00076   0.00231   0.00155   2.03205
    R7        2.49598  -0.00121  -0.00100  -0.00038  -0.00138   2.49460
    R8        2.02870   0.00025  -0.00047   0.00115   0.00068   2.02938
    R9        2.03088  -0.00015  -0.00011  -0.00022  -0.00033   2.03055
    A1        2.11694  -0.00163  -0.00289  -0.00266  -0.00555   2.11139
    A2        2.19405  -0.00030  -0.00144  -0.00135  -0.00279   2.19126
    A3        1.97219   0.00193   0.00433   0.00401   0.00834   1.98053
    A4        2.15893  -0.00002  -0.00201   0.00227   0.00027   2.15920
    A5        2.04441  -0.00022   0.00104  -0.00187  -0.00083   2.04358
    A6        2.07985   0.00023   0.00096  -0.00040   0.00056   2.08041
    A7        1.98085   0.00079   0.00295   0.00037   0.00332   1.98417
    A8        2.20618  -0.00065  -0.00384   0.00201  -0.00183   2.20435
    A9        2.09616  -0.00014   0.00089  -0.00238  -0.00150   2.09466
   A10        2.14040   0.00004  -0.00177   0.00229   0.00051   2.14091
   A11        2.09738   0.00004  -0.00088   0.00130   0.00042   2.09780
   A12        2.04541  -0.00007   0.00266  -0.00359  -0.00093   2.04447
    D1        0.00000   0.00000   0.00000   0.00000   0.00000   0.00000
    D2        3.14159   0.00000   0.00000   0.00000   0.00000   3.14159
    D3        3.14159   0.00000   0.00000   0.00000   0.00000   3.14159
    D4        0.00000   0.00000   0.00000   0.00000   0.00000   0.00000
    D5        0.00000   0.00000   0.00000   0.00000   0.00000   0.00000
    D6        3.14159   0.00000   0.00000   0.00000   0.00000   3.14159
    D7        3.14159   0.00000   0.00000   0.00000   0.00000   3.14159
    D8        0.00000   0.00000   0.00000   0.00000   0.00000   0.00000
    D9        0.00000   0.00000   0.00000   0.00000   0.00000   0.00000
   D10        3.14159   0.00000   0.00000   0.00000   0.00000   3.14159
   D11        3.14159   0.00000   0.00000   0.00000   0.00000   3.14159
   D12        0.00000   0.00000   0.00000   0.00000   0.00000   0.00000
         Item               Value     Threshold  Converged?
 Maximum Force            0.003976     0.000450     NO 
 RMS     Force            0.000924     0.000300     NO 
 Maximum Displacement     0.011674     0.001800     NO 
 RMS     Displacement     0.003839     0.001200     NO 
 Predicted change in Energy=-3.123065D-05
 GradGradGradGradGradGradGradGradGradGradGradGradGradGradGradGradGradGrad

                          Input orientation:                          
 ---------------------------------------------------------------------
 Center     Atomic      Atomic             Coordinates (Angstroms)
 Number     Number       Type             X           Y           Z
 ---------------------------------------------------------------------
      1          6           0       -2.081279   -1.676282    0.000000
      2          6           0       -1.408456   -0.543849    0.000000
      3          6           0        0.056903   -0.467136    0.000000
      4          1           0        0.539747   -1.427951    0.000000
      5          6           0        0.781725    0.636160    0.000000
      6          1           0        0.344394    1.616977    0.000000
      7          1           0        1.854665    0.577895    0.000000
      8          9           0       -1.452210   -2.844104    0.000000
      9         17           0       -2.336707    0.930459    0.000000
     10          1           0       -3.147958   -1.766489    0.000000
 ---------------------------------------------------------------------
                    Distance matrix (angstroms):
                    1          2          3          4          5
     1  C    0.000000
     2  C    1.317231   0.000000
     3  C    2.456391   1.467365   0.000000
     4  H    2.632765   2.139423   1.075316   0.000000
     5  C    3.680242   2.487833   1.320086   2.078246   0.000000
     6  H    4.090165   2.782382   2.103848   3.051188   1.073900
     7  H    4.535744   3.450546   2.079432   2.398422   1.074521
     8  F    1.326475   2.300672   2.815564   2.444051   4.135541
     9  Cl   2.619226   1.742192   2.771757   3.719689   3.132289
    10  H    1.070486   2.126198   3.458244   3.703212   4.605988
                    6          7          8          9         10
     6  H    0.000000
     7  H    1.833196   0.000000
     8  F    4.809265   4.758729   0.000000
     9  Cl   2.767601   4.206174   3.876811   0.000000
    10  H    4.862547   5.524706   2.009182   2.816320   0.000000
 Stoichiometry    C4H4ClF
 Framework group  CS[SG(C4H4ClF)]
 Deg. of freedom    17
 Full point group                 CS      NOp   2
 Largest Abelian subgroup         CS      NOp   2
 Largest concise Abelian subgroup C1      NOp   1
                         Standard orientation:                         
 ---------------------------------------------------------------------
 Center     Atomic      Atomic             Coordinates (Angstroms)
 Number     Number       Type             X           Y           Z
 ---------------------------------------------------------------------
      1          6           0       -0.388613    1.432053    0.000000
      2          6           0        0.000000    0.173451    0.000000
      3          6           0       -0.925990   -0.964838    0.000000
      4          1           0       -1.962480   -0.678491    0.000000
      5          6           0       -0.593867   -2.242461    0.000000
      6          1           0        0.426929   -2.575982    0.000000
      7          1           0       -1.356754   -2.999163    0.000000
      8          9           0       -1.676716    1.748797    0.000000
      9         17           0        1.716095   -0.126969    0.000000
     10          1           0        0.259955    2.283698    0.000000
 ---------------------------------------------------------------------
 Rotational constants (GHZ):      3.6366565      2.3395314      1.4236621
 Standard basis: 6-31G(d,p) (6D, 7F)
 There are    85 symmetry adapted basis functions of A'  symmetry.
 There are    29 symmetry adapted basis functions of A"  symmetry.
 Integral buffers will be    131072 words long.
 Raffenetti 1 integral format.
 Two-electron integral symmetry is turned on.
   114 basis functions,   220 primitive gaussians,   114 cartesian basis functions
    27 alpha electrons       27 beta electrons
       nuclear repulsion energy       266.7314738208 Hartrees.
 NAtoms=   10 NActive=   10 NUniq=   10 SFac= 7.50D-01 NAtFMM=   80 NAOKFM=F Big=F
 One-electron integrals computed using PRISM.
 NBasis=   114 RedAO= T  NBF=    85    29
 NBsUse=   114 1.00D-06 NBFU=    85    29
 Initial guess read from the read-write file.
 B after Tr=     0.000000    0.000000    0.000000
         Rot=    1.000000    0.000000    0.000000    0.000000 Ang=   0.00 deg.
 Initial guess orbital symmetries:
       Occupied  (A') (A') (A') (A') (A') (A') (A') (A') (A') (A")
                 (A') (A') (A') (A') (A') (A') (A') (A') (A") (A')
                 (A') (A') (A") (A') (A') (A") (A")
       Virtual   (A") (A') (A") (A') (A') (A') (A') (A') (A') (A')
                 (A') (A') (A") (A') (A') (A') (A') (A") (A") (A')
                 (A') (A") (A") (A') (A') (A') (A') (A') (A') (A")
                 (A') (A") (A') (A') (A') (A') (A') (A') (A') (A")
                 (A") (A') (A") (A') (A") (A") (A') (A") (A') (A')
                 (A") (A') (A') (A') (A') (A") (A') (A') (A') (A')
                 (A") (A') (A") (A') (A") (A') (A") (A") (A') (A")
                 (A") (A') (A') (A') (A') (A') (A') (A') (A') (A')
                 (A') (A') (A') (A') (A') (A') (A')
 Requested convergence on RMS density matrix=1.00D-08 within 128 cycles.
 Requested convergence on MAX density matrix=1.00D-06.
 Requested convergence on             energy=1.00D-06.
 No special actions if energy rises.
 Keep R1 ints in memory in canonical form, NReq=22367610.
 SCF Done:  E(RHF) =  -712.671165911     A.U. after   10 cycles
             Convg  =    0.4357D-08             -V/T =  2.0008
 Calling FoFJK, ICntrl=      2127 FMM=F ISym2X=1 I1Cent= 0 IOpClX= 0 NMat=1 NMatS=1 NMatT=0.
 ***** Axes restored to original set *****
 -------------------------------------------------------------------
 Center     Atomic                   Forces (Hartrees/Bohr)
 Number     Number              X              Y              Z
 -------------------------------------------------------------------
      1        6          -0.000471652    0.000083075    0.000000000
      2        6           0.000363096   -0.000406794    0.000000000
      3        6           0.000119393    0.000025229    0.000000000
      4        1           0.000037280    0.000143592    0.000000000
      5        6          -0.000122172   -0.000044503    0.000000000
      6        1           0.000014190   -0.000021229    0.000000000
      7        1           0.000013078    0.000019409    0.000000000
      8        9           0.000092446   -0.000009305    0.000000000
      9       17          -0.000105423    0.000180780    0.000000000
     10        1           0.000059764    0.000029746    0.000000000
 -------------------------------------------------------------------
 Cartesian Forces:  Max     0.000471652 RMS     0.000145896

 GradGradGradGradGradGradGradGradGradGradGradGradGradGradGradGradGradGrad
 Berny optimization.
 Using GEDIIS/GDIIS optimizer.
 Internal  Forces:  Max     0.000455819 RMS     0.000120816
 Search for a local minimum.
 Step number   4 out of a maximum of   43
 All quantities printed in internal units (Hartrees-Bohrs-Radians)
 Mixed Optimization -- En-DIIS/RFO-DIIS
 Swaping is turned off.
 Update second derivatives using D2CorX and points    1    2    3    4
 DE= -3.29D-05 DEPred=-3.12D-05 R= 1.05D+00
 SS=  1.41D+00  RLast= 1.37D-02 DXNew= 8.4853D-01 4.1215D-02
 Trust test= 1.05D+00 RLast= 1.37D-02 DXMaxT set to 5.05D-01
     Eigenvalues ---    0.00237   0.01435   0.01527   0.02681   0.02681
     Eigenvalues ---    0.02681   0.02681   0.15256   0.15918   0.16003
     Eigenvalues ---    0.16510   0.20561   0.21685   0.23610   0.25163
     Eigenvalues ---    0.28709   0.30105   0.37182   0.37224   0.37230
     Eigenvalues ---    0.37545   0.54008   0.55472   0.722631000.00000
     Eigenvalues --- 1000.000001000.000001000.000001000.000001000.00000
     Eigenvalues --- 1000.000001000.000001000.00000
 En-DIIS/RFO-DIIS IScMMF=        0 using points:     4    3
 RFO step:  Lambda=-1.00717129D-06.
 DIIS coeffs:      1.04921     -0.04921
 Iteration  1 RMS(Cart)=  0.00166174 RMS(Int)=  0.00000098
 Iteration  2 RMS(Cart)=  0.00000149 RMS(Int)=  0.00000000
 Iteration  3 RMS(Cart)=  0.00000000 RMS(Int)=  0.00000000
 ClnCor:  largest displacement from symmetrization is 9.93D-16 for atom     8.
 Variable       Old X    -DE/DX   Delta X   Delta X   Delta X     New X
                                  (DIIS)     (GDIIS)  (Total)
    R1        2.48921   0.00007  -0.00025   0.00026   0.00001   2.48922
    R2        2.50667   0.00005   0.00006   0.00008   0.00015   2.50682
    R3        2.02293  -0.00006  -0.00001  -0.00018  -0.00018   2.02274
    R4        2.77292   0.00007  -0.00007   0.00019   0.00012   2.77303
    R5        3.29227   0.00021   0.00025   0.00074   0.00099   3.29325
    R6        2.03205  -0.00011   0.00008  -0.00031  -0.00024   2.03181
    R7        2.49460  -0.00009  -0.00007  -0.00016  -0.00023   2.49438
    R8        2.02938  -0.00003   0.00003  -0.00007  -0.00003   2.02934
    R9        2.03055   0.00001  -0.00002   0.00004   0.00003   2.03058
    A1        2.11139  -0.00011  -0.00027  -0.00039  -0.00066   2.11073
    A2        2.19126   0.00003  -0.00014   0.00022   0.00008   2.19135
    A3        1.98053   0.00008   0.00041   0.00017   0.00058   1.98111
    A4        2.15920   0.00046   0.00001   0.00200   0.00202   2.16122
    A5        2.04358  -0.00022  -0.00004  -0.00095  -0.00099   2.04259
    A6        2.08041  -0.00024   0.00003  -0.00105  -0.00102   2.07938
    A7        1.98417   0.00019   0.00016   0.00092   0.00108   1.98525
    A8        2.20435  -0.00018  -0.00009  -0.00069  -0.00078   2.20358
    A9        2.09466  -0.00001  -0.00007  -0.00023  -0.00030   2.09436
   A10        2.14091  -0.00001   0.00003   0.00000   0.00003   2.14094
   A11        2.09780   0.00002   0.00002   0.00018   0.00020   2.09800
   A12        2.04447  -0.00002  -0.00005  -0.00018  -0.00023   2.04424
    D1        0.00000   0.00000   0.00000   0.00000   0.00000   0.00000
    D2        3.14159   0.00000   0.00000   0.00000   0.00000   3.14159
    D3        3.14159   0.00000   0.00000   0.00000   0.00000   3.14159
    D4        0.00000   0.00000   0.00000   0.00000   0.00000   0.00000
    D5        0.00000   0.00000   0.00000   0.00000   0.00000   0.00000
    D6        3.14159   0.00000   0.00000   0.00000   0.00000   3.14159
    D7        3.14159   0.00000   0.00000   0.00000   0.00000   3.14159
    D8        0.00000   0.00000   0.00000   0.00000   0.00000   0.00000
    D9        0.00000   0.00000   0.00000   0.00000   0.00000   0.00000
   D10        3.14159   0.00000   0.00000   0.00000   0.00000   3.14159
   D11        3.14159   0.00000   0.00000   0.00000   0.00000   3.14159
   D12        0.00000   0.00000   0.00000   0.00000   0.00000   0.00000
         Item               Value     Threshold  Converged?
 Maximum Force            0.000456     0.000450     NO 
 RMS     Force            0.000121     0.000300     YES
 Maximum Displacement     0.004496     0.001800     NO 
 RMS     Displacement     0.001661     0.001200     NO 
 Predicted change in Energy=-1.069577D-06
 GradGradGradGradGradGradGradGradGradGradGradGradGradGradGradGradGradGrad

                          Input orientation:                          
 ---------------------------------------------------------------------
 Center     Atomic      Atomic             Coordinates (Angstroms)
 Number     Number       Type             X           Y           Z
 ---------------------------------------------------------------------
      1          6           0       -2.082125   -1.676457    0.000000
      2          6           0       -1.407496   -0.545092    0.000000
      3          6           0        0.057891   -0.467752    0.000000
      4          1           0        0.542127   -1.427726    0.000000
      5          6           0        0.781319    0.636315    0.000000
      6          1           0        0.342845    1.616602    0.000000
      7          1           0        1.854355    0.579555    0.000000
      8          9           0       -1.454107   -2.844932    0.000000
      9         17           0       -2.335143    0.930214    0.000000
     10          1           0       -3.148842   -1.765047    0.000000
 ---------------------------------------------------------------------
                    Distance matrix (angstroms):
                    1          2          3          4          5
     1  C    0.000000
     2  C    1.317236   0.000000
     3  C    2.457770   1.467426   0.000000
     4  H    2.636013   2.140110   1.075190   0.000000
     5  C    3.680791   2.487295   1.319967   2.077854   0.000000
     6  H    4.089586   2.781477   2.103743   3.050844   1.073883
     7  H    4.537120   3.450290   2.079456   2.398149   1.074536
     8  F    1.326553   2.300313   2.817289   2.448146   4.137174
     9  Cl   2.618922   1.742715   2.771448   3.720022   3.130290
    10  H    1.070389   2.126164   3.459206   3.706350   4.605725
                    6          7          8          9         10
     6  H    0.000000
     7  H    1.833066   0.000000
     8  F    4.809815   4.761620   0.000000
     9  Cl   2.764552   4.204148   3.876591   0.000000
    10  H    4.860805   5.525317   2.009547   2.815411   0.000000
 Stoichiometry    C4H4ClF
 Framework group  CS[SG(C4H4ClF)]
 Deg. of freedom    17
 Full point group                 CS      NOp   2
 Largest Abelian subgroup         CS      NOp   2
 Largest concise Abelian subgroup C1      NOp   1
                         Standard orientation:                         
 ---------------------------------------------------------------------
 Center     Atomic      Atomic             Coordinates (Angstroms)
 Number     Number       Type             X           Y           Z
 ---------------------------------------------------------------------
      1          6           0       -0.378428    1.435219    0.000000
      2          6           0        0.000000    0.173513    0.000000
      3          6           0       -0.932916   -0.959186    0.000000
      4          1           0       -1.967845   -0.667712    0.000000
      5          6           0       -0.607582   -2.238432    0.000000
      6          1           0        0.411410   -2.577370    0.000000
      7          1           0       -1.374320   -2.991254    0.000000
      8          9           0       -1.664220    1.761534    0.000000
      9         17           0        1.714437   -0.139160    0.000000
     10          1           0        0.276872    2.281573    0.000000
 ---------------------------------------------------------------------
 Rotational constants (GHZ):      3.6388127      2.3387273      1.4236945
 Standard basis: 6-31G(d,p) (6D, 7F)
 There are    85 symmetry adapted basis functions of A'  symmetry.
 There are    29 symmetry adapted basis functions of A"  symmetry.
 Integral buffers will be    131072 words long.
 Raffenetti 1 integral format.
 Two-electron integral symmetry is turned on.
   114 basis functions,   220 primitive gaussians,   114 cartesian basis functions
    27 alpha electrons       27 beta electrons
       nuclear repulsion energy       266.7280498860 Hartrees.
 NAtoms=   10 NActive=   10 NUniq=   10 SFac= 7.50D-01 NAtFMM=   80 NAOKFM=F Big=F
 One-electron integrals computed using PRISM.
 NBasis=   114 RedAO= T  NBF=    85    29
 NBsUse=   114 1.00D-06 NBFU=    85    29
 Initial guess read from the read-write file.
 B after Tr=     0.000000    0.000000    0.000000
         Rot=    1.000000    0.000000    0.000000    0.000000 Ang=   0.00 deg.
 Initial guess orbital symmetries:
       Occupied  (A') (A') (A') (A') (A') (A') (A') (A') (A') (A")
                 (A') (A') (A') (A') (A') (A') (A') (A') (A") (A')
                 (A') (A') (A") (A') (A') (A") (A")
       Virtual   (A") (A') (A") (A') (A') (A') (A') (A') (A') (A')
                 (A') (A') (A") (A') (A') (A') (A') (A") (A") (A')
                 (A') (A") (A") (A') (A') (A') (A') (A') (A') (A")
                 (A') (A") (A') (A') (A') (A') (A') (A') (A') (A")
                 (A") (A') (A") (A') (A") (A") (A') (A") (A') (A')
                 (A") (A') (A') (A') (A') (A") (A') (A') (A') (A')
                 (A") (A') (A") (A') (A") (A') (A") (A") (A') (A")
                 (A") (A') (A') (A') (A') (A') (A') (A') (A') (A')
                 (A') (A') (A') (A') (A') (A') (A')
 Requested convergence on RMS density matrix=1.00D-08 within 128 cycles.
 Requested convergence on MAX density matrix=1.00D-06.
 Requested convergence on             energy=1.00D-06.
 No special actions if energy rises.
 Keep R1 ints in memory in canonical form, NReq=22367610.
 SCF Done:  E(RHF) =  -712.671167000     A.U. after    9 cycles
             Convg  =    0.8125D-08             -V/T =  2.0008
 Calling FoFJK, ICntrl=      2127 FMM=F ISym2X=1 I1Cent= 0 IOpClX= 0 NMat=1 NMatS=1 NMatT=0.
 ***** Axes restored to original set *****
 -------------------------------------------------------------------
 Center     Atomic                   Forces (Hartrees/Bohr)
 Number     Number              X              Y              Z
 -------------------------------------------------------------------
      1        6          -0.000024764    0.000036138    0.000000000
      2        6           0.000090018   -0.000078149    0.000000000
      3        6          -0.000052180   -0.000078551    0.000000000
      4        1          -0.000011429    0.000001488    0.000000000
      5        6           0.000029348    0.000118343    0.000000000
      6        1           0.000018375   -0.000023968    0.000000000
      7        1           0.000004364   -0.000008723    0.000000000
      8        9          -0.000003203   -0.000013110    0.000000000
      9       17          -0.000060459    0.000058759    0.000000000
     10        1           0.000009932   -0.000012226    0.000000000
 -------------------------------------------------------------------
 Cartesian Forces:  Max     0.000118343 RMS     0.000040236

 GradGradGradGradGradGradGradGradGradGradGradGradGradGradGradGradGradGrad
 Berny optimization.
 Using GEDIIS/GDIIS optimizer.
 Internal  Forces:  Max     0.000100189 RMS     0.000025876
 Search for a local minimum.
 Step number   5 out of a maximum of   43
 All quantities printed in internal units (Hartrees-Bohrs-Radians)
 Mixed Optimization -- En-DIIS/RFO-DIIS
 Swaping is turned off.
 Update second derivatives using D2CorX and points    1    2    3    4    5
 DE= -1.09D-06 DEPred=-1.07D-06 R= 1.02D+00
 SS=  1.41D+00  RLast= 3.16D-03 DXNew= 8.4853D-01 9.4892D-03
 Trust test= 1.02D+00 RLast= 3.16D-03 DXMaxT set to 5.05D-01
     Eigenvalues ---    0.00237   0.01435   0.01527   0.02681   0.02681
     Eigenvalues ---    0.02681   0.02681   0.15003   0.15893   0.16156
     Eigenvalues ---    0.16790   0.19015   0.21718   0.23161   0.25571
     Eigenvalues ---    0.29156   0.30588   0.37193   0.37199   0.37302
     Eigenvalues ---    0.37616   0.55222   0.56084   0.716721000.00000
     Eigenvalues --- 1000.000001000.000001000.000001000.000001000.00000
     Eigenvalues --- 1000.000001000.000001000.00000
 En-DIIS/RFO-DIIS IScMMF=        0 using points:     5    4    3
 RFO step:  Lambda=-3.74389578D-08.
 DIIS coeffs:      1.01682     -0.01547     -0.00135
 Iteration  1 RMS(Cart)=  0.00013485 RMS(Int)=  0.00000001
 Iteration  2 RMS(Cart)=  0.00000001 RMS(Int)=  0.00000000
 ClnCor:  largest displacement from symmetrization is 9.16D-16 for atom     7.
 Variable       Old X    -DE/DX   Delta X   Delta X   Delta X     New X
                                  (DIIS)     (GDIIS)  (Total)
    R1        2.48922   0.00000  -0.00001  -0.00002  -0.00003   2.48918
    R2        2.50682   0.00001   0.00000   0.00002   0.00002   2.50684
    R3        2.02274  -0.00001   0.00000  -0.00003  -0.00003   2.02271
    R4        2.77303  -0.00001   0.00000  -0.00007  -0.00007   2.77296
    R5        3.29325   0.00008   0.00002   0.00031   0.00034   3.29359
    R6        2.03181  -0.00001   0.00000  -0.00002  -0.00002   2.03180
    R7        2.49438   0.00010  -0.00001   0.00017   0.00016   2.49454
    R8        2.02934  -0.00003   0.00000  -0.00008  -0.00008   2.02927
    R9        2.03058   0.00000   0.00000   0.00001   0.00001   2.03059
    A1        2.11073   0.00001  -0.00002   0.00001  -0.00001   2.11072
    A2        2.19135   0.00001   0.00000   0.00008   0.00008   2.19143
    A3        1.98111  -0.00002   0.00002  -0.00009  -0.00007   1.98104
    A4        2.16122   0.00001   0.00003   0.00010   0.00013   2.16135
    A5        2.04259  -0.00004  -0.00002  -0.00019  -0.00021   2.04238
    A6        2.07938   0.00003  -0.00002   0.00009   0.00007   2.07946
    A7        1.98525  -0.00002   0.00002  -0.00011  -0.00008   1.98517
    A8        2.20358   0.00002  -0.00002   0.00011   0.00009   2.20366
    A9        2.09436   0.00000  -0.00001   0.00000  -0.00001   2.09435
   A10        2.14094   0.00002   0.00000   0.00011   0.00011   2.14105
   A11        2.09800  -0.00002   0.00000  -0.00010  -0.00009   2.09791
   A12        2.04424   0.00000  -0.00001  -0.00001  -0.00002   2.04423
    D1        0.00000   0.00000   0.00000   0.00000   0.00000   0.00000
    D2        3.14159   0.00000   0.00000   0.00000   0.00000   3.14159
    D3        3.14159   0.00000   0.00000   0.00000   0.00000   3.14159
    D4        0.00000   0.00000   0.00000   0.00000   0.00000   0.00000
    D5        0.00000   0.00000   0.00000   0.00000   0.00000   0.00000
    D6        3.14159   0.00000   0.00000   0.00000   0.00000   3.14159
    D7        3.14159   0.00000   0.00000   0.00000   0.00000   3.14159
    D8        0.00000   0.00000   0.00000   0.00000   0.00000   0.00000
    D9        0.00000   0.00000   0.00000   0.00000   0.00000   0.00000
   D10        3.14159   0.00000   0.00000   0.00000   0.00000   3.14159
   D11        3.14159   0.00000   0.00000   0.00000   0.00000   3.14159
   D12        0.00000   0.00000   0.00000   0.00000   0.00000   0.00000
         Item               Value     Threshold  Converged?
 Maximum Force            0.000100     0.000450     YES
 RMS     Force            0.000026     0.000300     YES
 Maximum Displacement     0.000500     0.001800     YES
 RMS     Displacement     0.000135     0.001200     YES
 Predicted change in Energy=-3.394494D-08
 Optimization completed.
    -- Stationary point found.
                           ----------------------------
                           !   Optimized Parameters   !
                           ! (Angstroms and Degrees)  !
 --------------------------                            --------------------------
 ! Name  Definition              Value          Derivative Info.                !
 --------------------------------------------------------------------------------
 ! R1    R(1,2)                  1.3172         -DE/DX =    0.0                 !
 ! R2    R(1,8)                  1.3266         -DE/DX =    0.0                 !
 ! R3    R(1,10)                 1.0704         -DE/DX =    0.0                 !
 ! R4    R(2,3)                  1.4674         -DE/DX =    0.0                 !
 ! R5    R(2,9)                  1.7427         -DE/DX =    0.0001              !
 ! R6    R(3,4)                  1.0752         -DE/DX =    0.0                 !
 ! R7    R(3,5)                  1.32           -DE/DX =    0.0001              !
 ! R8    R(5,6)                  1.0739         -DE/DX =    0.0                 !
 ! R9    R(5,7)                  1.0745         -DE/DX =    0.0                 !
 ! A1    A(2,1,8)              120.9359         -DE/DX =    0.0                 !
 ! A2    A(2,1,10)             125.555          -DE/DX =    0.0                 !
 ! A3    A(8,1,10)             113.5091         -DE/DX =    0.0                 !
 ! A4    A(1,2,3)              123.8286         -DE/DX =    0.0                 !
 ! A5    A(1,2,9)              117.0315         -DE/DX =    0.0                 !
 ! A6    A(3,2,9)              119.1399         -DE/DX =    0.0                 !
 ! A7    A(2,3,4)              113.7465         -DE/DX =    0.0                 !
 ! A8    A(2,3,5)              126.2555         -DE/DX =    0.0                 !
 ! A9    A(4,3,5)              119.998          -DE/DX =    0.0                 !
 ! A10   A(3,5,6)              122.667          -DE/DX =    0.0                 !
 ! A11   A(3,5,7)              120.2065         -DE/DX =    0.0                 !
 ! A12   A(6,5,7)              117.1265         -DE/DX =    0.0                 !
 ! D1    D(8,1,2,3)              0.0            -DE/DX =    0.0                 !
 ! D2    D(8,1,2,9)            180.0            -DE/DX =    0.0                 !
 ! D3    D(10,1,2,3)           180.0            -DE/DX =    0.0                 !
 ! D4    D(10,1,2,9)             0.0            -DE/DX =    0.0                 !
 ! D5    D(1,2,3,4)              0.0            -DE/DX =    0.0                 !
 ! D6    D(1,2,3,5)            180.0            -DE/DX =    0.0                 !
 ! D7    D(9,2,3,4)            180.0            -DE/DX =    0.0                 !
 ! D8    D(9,2,3,5)              0.0            -DE/DX =    0.0                 !
 ! D9    D(2,3,5,6)              0.0            -DE/DX =    0.0                 !
 ! D10   D(2,3,5,7)            180.0            -DE/DX =    0.0                 !
 ! D11   D(4,3,5,6)            180.0            -DE/DX =    0.0                 !
 ! D12   D(4,3,5,7)              0.0            -DE/DX =    0.0                 !
 --------------------------------------------------------------------------------
 GradGradGradGradGradGradGradGradGradGradGradGradGradGradGradGradGradGrad

                          Input orientation:                          
 ---------------------------------------------------------------------
 Center     Atomic      Atomic             Coordinates (Angstroms)
 Number     Number       Type             X           Y           Z
 ---------------------------------------------------------------------
      1          6           0       -2.082125   -1.676457    0.000000
      2          6           0       -1.407496   -0.545092    0.000000
      3          6           0        0.057891   -0.467752    0.000000
      4          1           0        0.542127   -1.427726    0.000000
      5          6           0        0.781319    0.636315    0.000000
      6          1           0        0.342845    1.616602    0.000000
      7          1           0        1.854355    0.579555    0.000000
      8          9           0       -1.454107   -2.844932    0.000000
      9         17           0       -2.335143    0.930214    0.000000
     10          1           0       -3.148842   -1.765047    0.000000
 ---------------------------------------------------------------------
                    Distance matrix (angstroms):
                    1          2          3          4          5
     1  C    0.000000
     2  C    1.317236   0.000000
     3  C    2.457770   1.467426   0.000000
     4  H    2.636013   2.140110   1.075190   0.000000
     5  C    3.680791   2.487295   1.319967   2.077854   0.000000
     6  H    4.089586   2.781477   2.103743   3.050844   1.073883
     7  H    4.537120   3.450290   2.079456   2.398149   1.074536
     8  F    1.326553   2.300313   2.817289   2.448146   4.137174
     9  Cl   2.618922   1.742715   2.771448   3.720022   3.130290
    10  H    1.070389   2.126164   3.459206   3.706350   4.605725
                    6          7          8          9         10
     6  H    0.000000
     7  H    1.833066   0.000000
     8  F    4.809815   4.761620   0.000000
     9  Cl   2.764552   4.204148   3.876591   0.000000
    10  H    4.860805   5.525317   2.009547   2.815411   0.000000
 Stoichiometry    C4H4ClF
 Framework group  CS[SG(C4H4ClF)]
 Deg. of freedom    17
 Full point group                 CS      NOp   2
 Largest Abelian subgroup         CS      NOp   2
 Largest concise Abelian subgroup C1      NOp   1
                         Standard orientation:                         
 ---------------------------------------------------------------------
 Center     Atomic      Atomic             Coordinates (Angstroms)
 Number     Number       Type             X           Y           Z
 ---------------------------------------------------------------------
      1          6           0       -0.378428    1.435219    0.000000
      2          6           0        0.000000    0.173513    0.000000
      3          6           0       -0.932916   -0.959186    0.000000
      4          1           0       -1.967845   -0.667712    0.000000
      5          6           0       -0.607582   -2.238432    0.000000
      6          1           0        0.411410   -2.577370    0.000000
      7          1           0       -1.374320   -2.991254    0.000000
      8          9           0       -1.664220    1.761534    0.000000
      9         17           0        1.714437   -0.139160    0.000000
     10          1           0        0.276872    2.281573    0.000000
 ---------------------------------------------------------------------
 Rotational constants (GHZ):      3.6388127      2.3387273      1.4236945

 **********************************************************************

            Population analysis using the SCF density.

 **********************************************************************

 Orbital symmetries:
       Occupied  (A') (A') (A') (A') (A') (A') (A') (A') (A') (A")
                 (A') (A') (A') (A') (A') (A') (A') (A') (A") (A')
                 (A') (A') (A") (A') (A') (A") (A")
[...]
     3   6    -0.08   0.03   0.00    -0.01   0.00   0.00     0.00   0.00   0.00
     4   1     0.92  -0.26   0.00     0.13  -0.04   0.00    -0.01   0.00   0.00
     5   6     0.02  -0.02   0.00    -0.10  -0.02   0.00     0.00   0.00   0.00
     6   1    -0.24   0.08   0.00     0.70  -0.24   0.00    -0.02   0.01   0.00
     7   1     0.06   0.06   0.00     0.46   0.46   0.00    -0.01  -0.01   0.00
     8   9     0.00   0.00   0.00     0.00   0.00   0.00     0.00   0.00   0.00
     9  17     0.00   0.00   0.00     0.00   0.00   0.00     0.00   0.00   0.00
    10   1    -0.01  -0.01   0.00    -0.02  -0.02   0.00    -0.60  -0.79   0.00

 -------------------
 - Thermochemistry -
 -------------------
 Temperature   298.150 Kelvin.  Pressure   1.00000 Atm.
 Atom     1 has atomic number  6 and mass  12.00000
 Atom     2 has atomic number  6 and mass  12.00000
 Atom     3 has atomic number  6 and mass  12.00000
 Atom     4 has atomic number  1 and mass   1.00783
 Atom     5 has atomic number  6 and mass  12.00000
 Atom     6 has atomic number  1 and mass   1.00783
 Atom     7 has atomic number  1 and mass   1.00783
 Atom     8 has atomic number  9 and mass  18.99840
 Atom     9 has atomic number 17 and mass  34.96885
 Atom    10 has atomic number  1 and mass   1.00783
 Molecular mass:   105.99856 amu.
 Principal axes and moments of inertia in atomic units:
                           1         2         3
     Eigenvalues --   495.96980 771.676631267.64643
           X            0.71162   0.70256   0.00000
           Y           -0.70256   0.71162   0.00000
           Z            0.00000   0.00000   1.00000
 This molecule is an asymmetric top.
 Rotational symmetry number  1.
 Warning -- assumption of classical behavior for rotation
           may cause significant error
 Rotational temperatures (Kelvin)      0.17464     0.11224     0.06833
 Rotational constants (GHZ):           3.63881     2.33873     1.42369
 Zero-point vibrational energy     195304.8 (Joules/Mol)
                                   46.67898 (Kcal/Mol)
 Warning -- explicit consideration of   7 degrees of freedom as
           vibrations may cause significant error
 Vibrational temperatures:    193.28   317.12   407.97   442.26   629.00
          (Kelvin)            684.63   828.52  1145.82  1154.81  1426.06
                             1525.52  1567.37  1623.04  1779.19  1874.87
                             2069.53  2133.41  2274.46  2645.08  2749.60
                             4795.35  4844.76  4924.16  4943.67
 
 Zero-point correction=                           0.074388 (Hartree/Particle)
 Thermal correction to Energy=                    0.080279
 Thermal correction to Enthalpy=                  0.081224
 Thermal correction to Gibbs Free Energy=         0.044090
 Sum of electronic and zero-point Energies=           -712.596779
 Sum of electronic and thermal Energies=              -712.590888
 Sum of electronic and thermal Enthalpies=            -712.589943
 Sum of electronic and thermal Free Energies=         -712.627077
 
                     E (Thermal)             CV                S
                      KCal/Mol        Cal/Mol-Kelvin    Cal/Mol-Kelvin
 Total                   50.376             19.979             78.154
 Electronic               0.000              0.000              0.000
 Translational            0.889              2.981             39.892
 Rotational               0.889              2.981             27.675
 Vibrational             48.599             14.017             10.587
 Vibration     1          0.613              1.919              2.883
 Vibration     2          0.647              1.810              1.956
 Vibration     3          0.682              1.704              1.512
 Vibration     4          0.697              1.660              1.376
 Vibration     5          0.797              1.389              0.836
 Vibration     6          0.832              1.304              0.721
 Vibration     7          0.932              1.083              0.493
                       Q            Log10(Q)             Ln(Q)
 Total Bot       0.524765D-20        -20.280035        -46.696507
 Total V=0       0.862684D+14         13.935852         32.088484
 Vib (Bot)       0.490646D-33        -33.309231        -76.697340
 Vib (Bot)    1  0.151591D+01          0.180673          0.416015
 Vib (Bot)    2  0.897295D+00         -0.047065         -0.108371
 Vib (Bot)    3  0.676764D+00         -0.169562         -0.390432
 Vib (Bot)    4  0.616092D+00         -0.210355         -0.484359
 Vib (Bot)    5  0.396313D+00         -0.401961         -0.925550
 Vib (Bot)    6  0.352724D+00         -0.452566         -1.042071
 Vib (Bot)    7  0.265718D+00         -0.575579         -1.325320
 Vib (V=0)       0.806596D+01          0.906656          2.087652
 Vib (V=0)    1  0.209624D+01          0.321441          0.740145
 Vib (V=0)    2  0.152720D+01          0.183896          0.423435
 Vib (V=0)    3  0.134143D+01          0.127569          0.293739
 Vib (V=0)    4  0.129345D+01          0.111751          0.257316
 Vib (V=0)    5  0.113802D+01          0.056148          0.129286
 Vib (V=0)    6  0.111189D+01          0.046063          0.106065
 Vib (V=0)    7  0.106622D+01          0.027847          0.064120
 Electronic      0.100000D+01          0.000000          0.000000
 Translational   0.428948D+08          7.632405         17.574262
 Rotational      0.249339D+06          5.396791         12.426570
 ***** Axes restored to original set *****
 -------------------------------------------------------------------
 Center     Atomic                   Forces (Hartrees/Bohr)
 Number     Number              X              Y              Z
 -------------------------------------------------------------------
      1        6          -0.000024785    0.000036132    0.000000000
      2        6           0.000090046   -0.000078129    0.000000000
      3        6          -0.000052166   -0.000078541    0.000000000
      4        1          -0.000011439    0.000001500    0.000000000
      5        6           0.000029320    0.000118305    0.000000000
      6        1           0.000018376   -0.000023963    0.000000000
      7        1           0.000004370   -0.000008718    0.000000000
      8        9          -0.000003187   -0.000013119    0.000000000
      9       17          -0.000060460    0.000058755    0.000000000
     10        1           0.000009925   -0.000012220    0.000000000
 -------------------------------------------------------------------
 Cartesian Forces:  Max     0.000118305 RMS     0.000040231

 GradGradGradGradGradGradGradGradGradGradGradGradGradGradGradGradGradGrad
 Berny optimization.
 Internal  Forces:  Max     0.000100154 RMS     0.000025872
 Search for a local minimum.
 Step number   1 out of a maximum of    2
 All quantities printed in internal units (Hartrees-Bohrs-Radians)
 Second derivative matrix not updated -- analytic derivatives used.
     Eigenvalues ---    0.00567   0.02655   0.02959   0.03402   0.03784
     Eigenvalues ---    0.05194   0.06581   0.12195   0.12969   0.14111
     Eigenvalues ---    0.15528   0.18195   0.20926   0.24231   0.27920
     Eigenvalues ---    0.32639   0.39543   0.40168   0.40235   0.41409
     Eigenvalues ---    0.41846   0.50499   0.73503   0.753361000.00000
     Eigenvalues --- 1000.000001000.000001000.000001000.000001000.00000
     Eigenvalues --- 1000.000001000.000001000.00000
 Angle between quadratic step and forces=  31.61 degrees.
 Linear search not attempted -- first point.
 Iteration  1 RMS(Cart)=  0.00012326 RMS(Int)=  0.00000001
 Iteration  2 RMS(Cart)=  0.00000001 RMS(Int)=  0.00000000
 ClnCor:  largest displacement from symmetrization is 6.66D-16 for atom     5.
 Variable       Old X    -DE/DX   Delta X   Delta X   Delta X     New X
                                 (Linear)    (Quad)   (Total)
    R1        2.48922   0.00000   0.00000  -0.00001  -0.00001   2.48921
    R2        2.50682   0.00001   0.00000   0.00003   0.00003   2.50685
    R3        2.02274  -0.00001   0.00000  -0.00003  -0.00003   2.02272
    R4        2.77303  -0.00001   0.00000  -0.00009  -0.00009   2.77294
    R5        3.29325   0.00008   0.00000   0.00035   0.00035   3.29360
    R6        2.03181  -0.00001   0.00000  -0.00001  -0.00001   2.03180
    R7        2.49438   0.00010   0.00000   0.00014   0.00014   2.49451
    R8        2.02934  -0.00003   0.00000  -0.00008  -0.00008   2.02927
    R9        2.03058   0.00000   0.00000   0.00001   0.00001   2.03059
    A1        2.11073   0.00001   0.00000   0.00000   0.00000   2.11073
    A2        2.19135   0.00001   0.00000   0.00009   0.00009   2.19143
    A3        1.98111  -0.00002   0.00000  -0.00009  -0.00009   1.98102
    A4        2.16122   0.00001   0.00000   0.00013   0.00013   2.16135
    A5        2.04259  -0.00004   0.00000  -0.00021  -0.00021   2.04238
    A6        2.07938   0.00003   0.00000   0.00007   0.00007   2.07946
    A7        1.98525  -0.00002   0.00000  -0.00010  -0.00010   1.98515
    A8        2.20358   0.00002   0.00000   0.00008   0.00008   2.20366
    A9        2.09436   0.00000   0.00000   0.00002   0.00002   2.09438
   A10        2.14094   0.00002   0.00000   0.00008   0.00008   2.14102
   A11        2.09800  -0.00002   0.00000  -0.00013  -0.00013   2.09787
   A12        2.04424   0.00000   0.00000   0.00005   0.00005   2.04429
    D1        0.00000   0.00000   0.00000   0.00000   0.00000   0.00000
    D2        3.14159   0.00000   0.00000   0.00000   0.00000   3.14159
    D3        3.14159   0.00000   0.00000   0.00000   0.00000   3.14159
    D4        0.00000   0.00000   0.00000   0.00000   0.00000   0.00000
    D5        0.00000   0.00000   0.00000   0.00000   0.00000   0.00000
    D6        3.14159   0.00000   0.00000   0.00000   0.00000   3.14159
    D7        3.14159   0.00000   0.00000   0.00000   0.00000   3.14159
    D8        0.00000   0.00000   0.00000   0.00000   0.00000   0.00000
    D9        0.00000   0.00000   0.00000   0.00000   0.00000   0.00000
   D10        3.14159   0.00000   0.00000   0.00000   0.00000   3.14159
   D11        3.14159   0.00000   0.00000   0.00000   0.00000   3.14159
   D12        0.00000   0.00000   0.00000   0.00000   0.00000   0.00000
         Item               Value     Threshold  Converged?
 Maximum Force            0.000100     0.000450     YES
 RMS     Force            0.000026     0.000300     YES
 Maximum Displacement     0.000463     0.001800     YES
 RMS     Displacement     0.000123     0.001200     YES
 Predicted change in Energy=-3.340662D-08
 Optimization completed.
    -- Stationary point found.
                           ----------------------------
                           !   Optimized Parameters   !
                           ! (Angstroms and Degrees)  !
 --------------------------                            --------------------------
 ! Name  Definition              Value          Derivative Info.                !
 --------------------------------------------------------------------------------
 ! R1    R(1,2)                  1.3172         -DE/DX =    0.0                 !
 ! R2    R(1,8)                  1.3266         -DE/DX =    0.0                 !
 ! R3    R(1,10)                 1.0704         -DE/DX =    0.0                 !
 ! R4    R(2,3)                  1.4674         -DE/DX =    0.0                 !
 ! R5    R(2,9)                  1.7427         -DE/DX =    0.0001              !
 ! R6    R(3,4)                  1.0752         -DE/DX =    0.0                 !
 ! R7    R(3,5)                  1.32           -DE/DX =    0.0001              !
 ! R8    R(5,6)                  1.0739         -DE/DX =    0.0                 !
 ! R9    R(5,7)                  1.0745         -DE/DX =    0.0                 !
 ! A1    A(2,1,8)              120.9359         -DE/DX =    0.0                 !
 ! A2    A(2,1,10)             125.555          -DE/DX =    0.0                 !
 ! A3    A(8,1,10)             113.5091         -DE/DX =    0.0                 !
 ! A4    A(1,2,3)              123.8286         -DE/DX =    0.0                 !
 ! A5    A(1,2,9)              117.0315         -DE/DX =    0.0                 !
 ! A6    A(3,2,9)              119.1399         -DE/DX =    0.0                 !
 ! A7    A(2,3,4)              113.7465         -DE/DX =    0.0                 !
 ! A8    A(2,3,5)              126.2555         -DE/DX =    0.0                 !
 ! A9    A(4,3,5)              119.998          -DE/DX =    0.0                 !
 ! A10   A(3,5,6)              122.667          -DE/DX =    0.0                 !
 ! A11   A(3,5,7)              120.2065         -DE/DX =    0.0                 !
 ! A12   A(6,5,7)              117.1265         -DE/DX =    0.0                 !
 ! D1    D(8,1,2,3)              0.0            -DE/DX =    0.0                 !
 ! D2    D(8,1,2,9)            180.0            -DE/DX =    0.0                 !
 ! D3    D(10,1,2,3)           180.0            -DE/DX =    0.0                 !
 ! D4    D(10,1,2,9)             0.0            -DE/DX =    0.0                 !
 ! D5    D(1,2,3,4)              0.0            -DE/DX =    0.0                 !
 ! D6    D(1,2,3,5)            180.0            -DE/DX =    0.0                 !
 ! D7    D(9,2,3,4)            180.0            -DE/DX =    0.0                 !
 ! D8    D(9,2,3,5)              0.0            -DE/DX =    0.0                 !
 ! D9    D(2,3,5,6)              0.0            -DE/DX =    0.0                 !
 ! D10   D(2,3,5,7)            180.0            -DE/DX =    0.0                 !
 ! D11   D(4,3,5,6)            180.0            -DE/DX =    0.0                 !
 ! D12   D(4,3,5,7)              0.0            -DE/DX =    0.0                 !
 --------------------------------------------------------------------------------
 GradGradGradGradGradGradGradGradGradGradGradGradGradGradGradGradGradGrad

 1\1\GINC-MALLOS72\Freq\RHF\6-31G(d,p)\C4H4Cl1F1\MARLIN\26-Oct-2024\0\\
 #N Geom=AllCheck Guess=TCheck SCRF=Check GenChk RHF/6-31G(d,p) Freq\\T
 itle Card Required\\0,1\C,-2.0821249197,-1.6764565352,0.\C,-1.40749603
 38,-0.545091709,0.\C,0.0578905736,-0.4677521687,0.\H,0.5421265891,-1.4
 277257173,0.\C,0.7813193412,0.6363147512,0.\H,0.3428447765,1.616602422
 4,0.\H,1.8543549916,0.5795545825,0.\F,-1.4541065181,-2.8449320719,0.\C
 l,-2.3351433458,0.9302142042,0.\H,-3.1488416947,-1.7650467381,0.\\Vers
 ion=EM64L-G09RevA.01\State=1-A'\HF=-712.671167\RMSD=2.448e-09\RMSF=4.0
 23e-05\ZeroPoint=0.0743877\Thermal=0.0802794\Dipole=0.1074561,-0.05913
 11,0.\DipoleDeriv=0.1499877,-0.4735708,0.,0.2057195,1.4003306,0.,0.,0.
 ,0.0773127,0.2543295,-0.4464292,0.,-0.4077441,0.4374266,0.,0.,0.,-0.06
 07189,0.1964437,0.10513,0.,0.0252354,-0.1174814,0.,0.,0.,-0.0936892,-0
 .0268933,0.0443751,0.,0.0478789,-0.0065704,0.,0.,0.,0.1519547,-0.00457
 04,-0.1345383,0.,-0.0449214,0.0493262,0.,0.,0.,-0.278024,0.0367209,0.0
 696422,0.,0.0412337,-0.0094688,0.,0.,0.,0.1613668,-0.1002956,-0.011450
 5,0.,0.0254569,0.0585389,0.,0.,0.,0.136876,-0.2095964,0.5649158,0.,-0.
 0799286,-1.3871192,0.,0.,0.,-0.1523581,-0.3036416,0.2548302,0.,0.19690
 35,-0.4588326,0.,0.,0.,-0.0954561,0.0075153,0.0270954,0.,-0.0098338,0.
 0338503,0.,0.,0.,0.1527363\Polar=61.721105,14.013557,70.5115865,0.,0.,
 21.5390881\HyperPolar=9.9963707,-9.8538547,-4.2330248,5.7474922,0.,0.,
 0.,-3.8500398,-3.6877306,0.\PG=CS [SG(C4H4Cl1F1)]\NImag=0\\0.86941742,
 0.16543090,0.92735450,0.,0.,0.14942840,-0.28294852,-0.24316894,0.,0.67
 950537,-0.24573313,-0.49672672,0.,0.19817320,0.81589320,0.,0.,-0.06817
 031,0.,0.,0.13389501,-0.01962644,-0.02603964,0.,-0.27646409,-0.0018170
 3,0.,0.73259897,-0.04589586,0.00724096,0.,-0.00215120,-0.11072184,0.,0
 .13420525,0.95680613,0.,0.,0.00976922,0.,0.,-0.07394470,0.,0.,0.155473
 78,-0.00286475,0.00354028,0.,-0.01284746,0.02971154,0.,-0.13287483,0.1
 2609087,0.,0.13811362,0.00049809,-0.00081340,0.,-0.00061844,0.00374051
 ,0.,0.12561705,-0.31169856,0.,-0.13223956,0.33243703,0.,0.,-0.00031358
 ,0.,0.,0.00366385,0.,0.,-0.04845791,0.,0.,0.03146305,-0.00746100,0.011
 40140,0.,-0.03171471,-0.04203146,0.,-0.28486513,-0.23638029,0.,0.01427
 659,0.01559764,0.,0.81165374,0.00827762,0.00273721,0.,-0.01521845,0.00
 420002,0.,-0.22826063,-0.50729346,0.,-0.02134391,-0.02223069,0.,0.1189
 1021,0.91951850,0.,0.,0.00097513,0.,0.,0.00696127,0.,0.,-0.06503735,0.
 ,0.,0.00821901,0.,0.,0.14034165,0.00033660,-0.00027143,0.,0.00103487,-
 0.00016801,0.,0.01592351,-0.01875359,0.,-0.00204801,-0.00348410,0.,-0.
 12483040,0.12156641,0.,0.12133665,0.00043403,-0.00070133,0.,0.00213850
 ,-0.00047748,0.,0.01569495,-0.02161844,0.,-0.00365617,-0.00264914,0.,0
 .11437935,-0.32699616,0.,-0.12766946,0.34619934,0.,0.,0.00042783,0.,0.
 ,-0.00887883,0.,0.,0.00811583,0.,0.,0.01357782,0.,0.,-0.04717344,0.,0.
 ,0.02908997,-0.00114838,0.00075354,0.,0.00078796,-0.00263711,0.,-0.013
 88616,0.00481640,0.,0.00123247,-0.00025313,0.,-0.37934220,0.01843048,0
 .,-0.00763384,-0.00148442,0.,0.39965227,-0.00164666,0.00112218,0.,-0.0
 0168626,-0.00617895,0.,-0.03369402,0.00612700,0.,-0.00002551,0.0013613
 4,0.,0.02567684,-0.07064251,0.,0.02917662,0.00381158,0.,-0.01869133,0.
 06419365,0.,0.,-0.00029090,0.,0.,0.01446973,0.,0.,0.00698116,0.,0.,-0.
 00957713,0.,0.,-0.04435666,0.,0.,0.00468448,0.,0.,0.02893084,-0.166662
 81,0.13282815,0.,0.01828854,-0.00768931,0.,-0.00667411,0.00365428,0.,0
 .00256537,-0.00341376,0.,0.00387285,-0.00216395,0.,-0.00042290,-0.0006
 8469,0.,0.00026440,0.00029646,0.,0.16291115,0.12816548,-0.33531498,0.,
 0.02800463,-0.05175929,0.,0.00760761,-0.00002696,0.,-0.00359120,-0.001
 76192,0.,-0.00318073,0.00008146,0.,0.00033212,0.00048306,0.,-0.0004338
 7,-0.00018040,0.,-0.16812876,0.40930457,0.,0.,-0.04507744,0.,0.,0.0096
 3721,0.,0.,-0.00690167,0.,0.,0.00001769,0.,0.,0.00013763,0.,0.,-0.0003
 1821,0.,0.,0.00073297,0.,0.,0.02484647,0.00288486,-0.00335460,0.,-0.08
 716408,0.06823090,0.,-0.01512675,0.03598536,0.,-0.00579095,-0.00179748
 ,0.,-0.00117442,-0.00029935,0.,-0.00372325,0.00092763,0.,0.00010007,0.
 00075529,0.,-0.00010769,0.00117333,0.,0.10853520,0.03375962,-0.0355768
 2,0.,0.06413147,-0.16432719,0.,0.00626796,-0.01326277,0.,0.00154374,0.
 00152538,0.,-0.00265608,0.00000077,0.,-0.00077295,0.00194006,0.,-0.000
 25725,0.00078841,0.,-0.00129249,-0.01105124,0.,-0.10075256,0.22018803,
 0.,0.,0.00206106,0.,0.,-0.02700416,0.,0.,0.00331996,0.,0.,0.00171772,0
 .,0.,-0.00014136,0.,0.,-0.00026737,0.,0.,0.00006947,0.,0.,0.01003588,0
 .,0.,0.01475261,-0.39192698,-0.04111966,0.,-0.00847788,0.00396041,0.,0
 .00099504,-0.00157123,0.,0.00023795,0.00009370,0.,-0.00041531,0.000101
 56,0.,0.00002676,-0.00007972,0.,-0.00002658,-0.00016144,0.,-0.01403480
 ,0.01005138,0.,0.00156701,0.00002852,0.,0.41205479,-0.04329008,-0.0693
 2160,0.,-0.02960452,0.00635775,0.,0.00041851,-0.00555208,0.,-0.0000300
 8,0.00008945,0.,-0.00171688,0.00062487,0.,0.00004437,0.00000851,0.,-0.
 00024332,-0.00040229,0.,0.04659406,-0.00977431,0.,-0.00086853,-0.00022
 463,0.,0.02869647,0.07819433,0.,0.,-0.04880940,0.,0.,0.00937093,0.,0.,
 0.01068168,0.,0.,-0.00031051,0.,0.,0.00007412,0.,0.,0.00074191,0.,0.,-
 0.00164396,0.,0.,0.00688948,0.,0.,-0.00454380,0.,0.,0.02754955\\0.0000
 2478,-0.00003613,0.,-0.00009005,0.00007813,0.,0.00005217,0.00007854,0.
 ,0.00001144,-0.00000150,0.,-0.00002932,-0.00011830,0.,-0.00001838,0.00
 002396,0.,-0.00000437,0.00000872,0.,0.00000319,0.00001312,0.,0.0000604
 6,-0.00005875,0.,-0.00000992,0.00001222,0.\\\@


 KNIGHT- SIRE, I'VE JUST RETURNED FROM THE FRONT
 KING-   HOW GOES THE BATTLE                    
 KNIGHT- THE SITUATION IS QUITE FLUID           
 KING-   WHAT DOES *THAT* MEAN                  
 KNIGHT- WE'RE UP THE CREEK                     
                THE WIZARD OF ID                
 Job cpu time:  0 days  0 hours  1 minutes 33.5 seconds.
 File lengths (MBytes):  RWF=     21 Int=      0 D2E=      0 Chk=      2 Scr=      1
 Normal termination of Gaussian 09 at Sat Oct 26 18:15:33 2024.
