 Entering Gaussian System, Link 0=g09
 Initial command:
 /u/local/G09/g09/l1.exe /tmp/marlin/23016.mallos00.local/Gau-33756.inp -scrdir=/tmp/marlin/23016.mallos00.local/
 Entering Link 1 = /u/local/G09/g09/l1.exe PID=     33757.
  
 Copyright (c) 1988,1990,1992,1993,1995,1998,2003,2009, Gaussian, Inc.
                  All Rights Reserved.
  
 This is part of the Gaussian(R) 09 program.  It is based on
 the Gaussian(R) 03 system (copyright 2003, Gaussian, Inc.),
 the Gaussian(R) 98 system (copyright 1998, Gaussian, Inc.),
 the Gaussian(R) 94 system (copyright 1995, Gaussian, Inc.),
 the Gaussian 92(TM) system (copyright 1992, Gaussian, Inc.),
 the Gaussian 90(TM) system (copyright 1990, Gaussian, Inc.),
 the Gaussian 88(TM) system (copyright 1988, Gaussian, Inc.),
 the Gaussian 86(TM) system (copyright 1986, Carnegie Mellon
 University), and the Gaussian 82(TM) system (copyright 1983,
 Carnegie Mellon University). Gaussian is a federally registered
 trademark of Gaussian, Inc.
  
 This software contains proprietary and confidential information,
 including trade secrets, belonging to Gaussian, Inc.
  
 This software is provided under written license and may be
 used, copied, transmitted, or stored only in accord with that
 written license.
  
 The following legend is applicable only to US Government
 contracts under FAR:
  
                    RESTRICTED RIGHTS LEGEND
  
 Use, reproduction and disclosure by the US Government is
 subject to restrictions as set forth in subparagraphs (a)
 and (c) of the Commercial Computer Software - Restricted
 Rights clause in FAR 52.227-19.
  
 Gaussian, Inc.
 340 Quinnipiac St., Bldg. 40, Wallingford CT 06492
  
  
 ---------------------------------------------------------------
 Warning -- This program may not be used in any manner that
 competes with the business of Gaussian, Inc. or will provide
 assistance to any competitor of Gaussian, Inc.  The licensee
 of this program is prohibited from giving any competitor of
 Gaussian, Inc. access to this program.  By using this program,
 the user acknowledges that Gaussian, Inc. is engaged in the
 business of creating and licensing software in the field of
 computational chemistry and represents and warrants to the
 licensee that it is not a competitor of Gaussian, Inc. and that
 it will not use this program in any manner prohibited above.
 ---------------------------------------------------------------
  

 Cite this work as:
 Gaussian 09, Revision A.01,
 M. J. Frisch, G. W. Trucks, H. B. Schlegel, G. E. Scuseria, 
 M. A. Robb, J. R. Cheeseman, G. Scalmani, V. Barone, B. Mennucci, 
 G. A. Petersson, H. Nakatsuji, M. Caricato, X. Li, H. P. Hratchian, 
 A. F. Izmaylov, J. Bloino, G. Zheng, J. L. Sonnenberg, M. Hada, 
 M. Ehara, K. Toyota, R. Fukuda, J. Hasegawa, M. Ishida, T. Nakajima, 
 Y. Honda, O. Kitao, H. Nakai, T. Vreven, J. A. Montgomery, Jr., 
 J. E. Peralta, F. Ogliaro, M. Bearpark, J. J. Heyd, E. Brothers, 
 K. N. Kudin, V. N. Staroverov, R. Kobayashi, J. Normand, 
 K. Raghavachari, A. Rendell, J. C. Burant, S. S. Iyengar, J. Tomasi, 
 M. Cossi, N. Rega, J. M. Millam, M. Klene, J. E. Knox, J. B. Cross, 
 V. Bakken, C. Adamo, J. Jaramillo, R. Gomperts, R. E. Stratmann, 
 O. Yazyev, A. J. Austin, R. Cammi, C. Pomelli, J. W. Ochterski, 
 R. L. Martin, K. Morokuma, V. G. Zakrzewski, G. A. Voth, 
 P. Salvador, J. J. Dannenberg, S. Dapprich, A. D. Daniels, 
 O. Farkas, J. B. Foresman, J. V. Ortiz, J. Cioslowski, 
 and D. J. Fox, Gaussian, Inc., Wallingford CT, 2009.
 
 ******************************************
 Gaussian 09:  EM64L-G09RevA.01  8-May-2009
                26-Oct-2024 
 ******************************************
 %mem=103GB
 %nproc=20
 Will use up to   20 processors via shared memory.
 %chk=5-base5.chk
 -----------------------------------------------
 # opt freq=noraman hf/cc-pvtz geom=connectivity
 -----------------------------------------------
 1/18=20,19=15,38=1,57=2/1,3;
 2/9=110,12=2,17=6,18=5,40=1/2;
 3/5=16,6=1,11=9,16=1,25=1,30=1,71=1/1,2,3;
 4//1;
 5/5=2,38=5/2;
 6/7=2,8=2,9=2,10=2,28=1/1;
 7//1,2,3,16;
 1/18=20,19=15/3(2);
 2/9=110/2;
 99//99;
 2/9=110/2;
 3/5=16,6=1,11=9,16=1,25=1,30=1,71=1/1,2,3;
 4/5=5,16=3/1;
 5/5=2,38=5/2;
 7//1,2,3,16;
 1/18=20,19=15/3(-5);
 2/9=110/2;
 6/7=2,8=2,9=2,10=2,19=2,28=1/1;
 99/9=1/99;
 -------------------
 Title Card Required
 -------------------
 Symbolic Z-matrix:
 Charge =  0 Multiplicity = 1
 C                    -2.1124   -1.70543   0. 
 C                    -1.43713  -0.53045   0. 
 C                     0.10287  -0.53045   0. 
 H                     0.63603  -1.45815   0. 
 C                     0.78511   0.6405    0. 
 H                     0.25747   1.57135   0. 
 H                     1.8551    0.63414   0. 
 F                    -1.43972  -2.8759    0. 
 Cl                   -2.31411   0.9955    0. 
 H                    -3.1824   -1.70543   0. 
 

 GradGradGradGradGradGradGradGradGradGradGradGradGradGradGradGradGradGrad
 Berny optimization.
 Initialization pass.
                           ----------------------------
                           !    Initial Parameters    !
                           ! (Angstroms and Degrees)  !
 --------------------------                            --------------------------
 ! Name  Definition              Value          Derivative Info.                !
 --------------------------------------------------------------------------------
 ! R1    R(1,2)                  1.3552         estimate D2E/DX2                !
 ! R2    R(1,8)                  1.35           estimate D2E/DX2                !
 ! R3    R(1,10)                 1.07           estimate D2E/DX2                !
 ! R4    R(2,3)                  1.54           estimate D2E/DX2                !
 ! R5    R(2,9)                  1.76           estimate D2E/DX2                !
 ! R6    R(3,4)                  1.07           estimate D2E/DX2                !
 ! R7    R(3,5)                  1.3552         estimate D2E/DX2                !
 ! R8    R(5,6)                  1.07           estimate D2E/DX2                !
 ! R9    R(5,7)                  1.07           estimate D2E/DX2                !
 ! A1    A(2,1,8)              120.2269         estimate D2E/DX2                !
 ! A2    A(2,1,10)             119.8865         estimate D2E/DX2                !
 ! A3    A(8,1,10)             119.8865         estimate D2E/DX2                !
 ! A4    A(1,2,3)              119.8865         estimate D2E/DX2                !
 ! A5    A(1,2,9)              120.2269         estimate D2E/DX2                !
 ! A6    A(3,2,9)              119.8865         estimate D2E/DX2                !
 ! A7    A(2,3,4)              119.8865         estimate D2E/DX2                !
 ! A8    A(2,3,5)              120.2269         estimate D2E/DX2                !
 ! A9    A(4,3,5)              119.8865         estimate D2E/DX2                !
 ! A10   A(3,5,6)              120.2269         estimate D2E/DX2                !
 ! A11   A(3,5,7)              119.8865         estimate D2E/DX2                !
 ! A12   A(6,5,7)              119.8865         estimate D2E/DX2                !
 ! D1    D(8,1,2,3)              0.0            estimate D2E/DX2                !
 ! D2    D(8,1,2,9)            180.0            estimate D2E/DX2                !
 ! D3    D(10,1,2,3)           180.0            estimate D2E/DX2                !
 ! D4    D(10,1,2,9)             0.0            estimate D2E/DX2                !
 ! D5    D(1,2,3,4)              0.0            estimate D2E/DX2                !
 ! D6    D(1,2,3,5)            180.0            estimate D2E/DX2                !
 ! D7    D(9,2,3,4)            180.0            estimate D2E/DX2                !
 ! D8    D(9,2,3,5)              0.0            estimate D2E/DX2                !
 ! D9    D(2,3,5,6)              0.0            estimate D2E/DX2                !
 ! D10   D(2,3,5,7)            180.0            estimate D2E/DX2                !
 ! D11   D(4,3,5,6)            180.0            estimate D2E/DX2                !
 ! D12   D(4,3,5,7)              0.0            estimate D2E/DX2                !
 --------------------------------------------------------------------------------
 Trust Radius=3.00D-01 FncErr=1.00D-07 GrdErr=1.00D-07
 Number of steps in this run=  43 maximum allowed number of steps= 100.
 GradGradGradGradGradGradGradGradGradGradGradGradGradGradGradGradGradGrad

                          Input orientation:                          
 ---------------------------------------------------------------------
 Center     Atomic      Atomic             Coordinates (Angstroms)
 Number     Number       Type             X           Y           Z
 ---------------------------------------------------------------------
      1          6           0       -2.112403   -1.705426    0.000000
      2          6           0       -1.437129   -0.530449    0.000000
      3          6           0        0.102871   -0.530449    0.000000
      4          1           0        0.636035   -1.458154    0.000000
      5          6           0        0.785114    0.640495    0.000000
      6          1           0        0.257472    1.571352    0.000000
      7          1           0        1.855096    0.634138    0.000000
      8          9           0       -1.439720   -2.875895    0.000000
      9         17           0       -2.314109    0.995496    0.000000
     10          1           0       -3.182403   -1.705426    0.000000
 ---------------------------------------------------------------------
                    Distance matrix (angstroms):
                    1          2          3          4          5
     1  C    0.000000
     2  C    1.355200   0.000000
     3  C    2.507591   1.540000   0.000000
     4  H    2.759539   2.271265   1.070000   0.000000
     5  C    3.728131   2.511867   1.355200   2.103938   0.000000
     6  H    4.043956   2.699859   2.107479   3.053066   1.070000
     7  H    4.605932   3.492135   2.103938   2.421527   1.070000
     8  F    1.350000   2.345448   2.807259   2.513712   4.161117
     9  Cl   2.708443   1.760000   2.858373   3.837153   3.119488
    10  H    1.070000   2.103938   3.489068   3.826436   4.609181
                    6          7          8          9         10
     6  H    0.000000
     7  H    1.852234   0.000000
     8  F    4.760091   4.814161   0.000000
     9  Cl   2.635268   4.184835   3.968907   0.000000
    10  H    4.750791   5.554274   2.099272   2.837061   0.000000
 Stoichiometry    C4H4ClF
 Framework group  CS[SG(C4H4ClF)]
 Deg. of freedom    17
 Full point group                 CS      NOp   2
 Largest Abelian subgroup         CS      NOp   2
 Largest concise Abelian subgroup C1      NOp   1
                         Standard orientation:                         
 ---------------------------------------------------------------------
 Center     Atomic      Atomic             Coordinates (Angstroms)
 Number     Number       Type             X           Y           Z
 ---------------------------------------------------------------------
      1          6           0       -1.369017   -0.695955    0.000000
      2          6           0       -0.198072   -0.013712    0.000000
      3          6           0        1.137129   -0.781069    0.000000
      4          1           0        1.137129   -1.851069    0.000000
      5          6           0        2.312107   -0.105794    0.000000
      6          1           0        2.318464    0.964187    0.000000
      7          1           0        3.236627   -0.644461    0.000000
      8          9           0       -1.369017   -2.045955    0.000000
      9         17           0       -0.198072    1.746289    0.000000
     10          1           0       -2.296722   -0.162791    0.000000
 ---------------------------------------------------------------------
 Rotational constants (GHZ):      3.6094964      2.2351042      1.3803510
 Standard basis: CC-pVTZ (5D, 7F)
 There are   163 symmetry adapted basis functions of A'  symmetry.
 There are    77 symmetry adapted basis functions of A"  symmetry.
 Integral buffers will be    131072 words long.
 Raffenetti 1 integral format.
 Two-electron integral symmetry is turned on.
   240 basis functions,   422 primitive gaussians,   274 cartesian basis functions
    27 alpha electrons       27 beta electrons
       nuclear repulsion energy       262.2206758704 Hartrees.
 NAtoms=   10 NActive=   10 NUniq=   10 SFac= 7.50D-01 NAtFMM=   80 NAOKFM=F Big=F
 One-electron integrals computed using PRISM.
 NBasis=   240 RedAO= T  NBF=   163    77
 NBsUse=   240 1.00D-06 NBFU=   163    77
 Harris functional with IExCor=  205 diagonalized for initial guess.
 ExpMin= 1.03D-01 ExpMax= 4.56D+05 ExpMxC= 1.44D+03 IAcc=2 IRadAn=         0 AccDes= 0.00D+00
 HarFok:  IExCor=  205 AccDes= 0.00D+00 IRadAn=         0 IDoV= 1
 ScaDFX=  1.000000  1.000000  1.000000  1.000000
 FoFCou: FMM=F IPFlag=           0 FMFlag=      100000 FMFlg1=           0
         NFxFlg=           0 DoJE=T BraDBF=F KetDBF=T FulRan=T
         Omega=  0.000000  0.000000  1.000000  0.000000  0.000000 ICntrl=     500 IOpCl=  0
         NMat0=    1 NMatS0=    1 NMatT0=    0 NMatD0=    1 NMtDS0=    0 NMtDT0=    0
         I1Cent=           4 NGrid=           0.
 Petite list used in FoFCou.
 Initial guess orbital symmetries:
       Occupied  (A') (A') (A') (A') (A') (A') (A') (A') (A") (A')
                 (A') (A') (A') (A') (A') (A') (A') (A') (A') (A')
                 (A") (A') (A") (A') (A") (A') (A")
       Virtual   (A") (A') (A") (A') (A') (A') (A') (A') (A') (A')
                 (A') (A') (A") (A') (A') (A") (A') (A') (A") (A')
                 (A") (A') (A") (A') (A') (A") (A') (A') (A') (A")
                 (A') (A') (A") (A') (A') (A") (A') (A') (A") (A')
                 (A") (A') (A') (A') (A") (A') (A') (A") (A') (A')
                 (A") (A') (A") (A') (A") (A') (A') (A") (A') (A')
                 (A") (A') (A') (A") (A') (A') (A') (A") (A') (A')
                 (A') (A') (A') (A') (A') (A') (A") (A") (A') (A")
                 (A") (A") (A') (A') (A') (A') (A") (A') (A") (A")
                 (A') (A") (A') (A") (A') (A') (A") (A') (A') (A")
                 (A') (A') (A') (A") (A') (A') (A') (A") (A') (A")
                 (A') (A") (A') (A") (A') (A') (A") (A") (A') (A')
                 (A') (A") (A') (A') (A") (A') (A") (A') (A') (A')
                 (A") (A") (A') (A") (A') (A") (A") (A') (A') (A')
                 (A") (A') (A') (A") (A') (A') (A") (A') (A") (A')
                 (A') (A') (A") (A") (A') (A') (A') (A") (A") (A')
                 (A') (A") (A') (A") (A') (A') (A") (A') (A') (A")
                 (A') (A") (A') (A') (A') (A") (A') (A") (A') (A')
                 (A") (A') (A") (A') (A') (A") (A') (A') (A') (A')
                 (A') (A') (A') (A') (A') (A') (A") (A') (A") (A')
                 (A") (A') (A') (A") (A') (A') (A") (A') (A') (A')
                 (A') (A') (A')
 The electronic state of the initial guess is 1-A'.
 Requested convergence on RMS density matrix=1.00D-08 within 128 cycles.
 Requested convergence on MAX density matrix=1.00D-06.
 Requested convergence on             energy=1.00D-06.
 No special actions if energy rises.
 Keep R1 ints in memory in canonical form, NReq=720370894.
 SCF Done:  E(RHF) =  -712.784418139     A.U. after   13 cycles
             Convg  =    0.3866D-08             -V/T =  2.0008

 **********************************************************************

            Population analysis using the SCF density.

 **********************************************************************

 Orbital symmetries:
       Occupied  (A') (A') (A') (A') (A') (A') (A') (A') (A') (A")
                 (A') (A') (A') (A') (A') (A') (A') (A') (A") (A')
                 (A') (A') (A") (A') (A') (A") (A")
       Virtual   (A") (A') (A') (A') (A') (A") (A') (A') (A') (A')
                 (A') (A") (A') (A') (A") (A') (A') (A") (A') (A')
                 (A") (A") (A') (A') (A') (A") (A') (A') (A') (A")
                 (A') (A') (A") (A') (A') (A') (A") (A') (A") (A')
                 (A") (A') (A') (A') (A") (A') (A") (A') (A') (A')
                 (A") (A") (A') (A") (A') (A') (A') (A") (A') (A")
                 (A') (A') (A') (A') (A") (A') (A') (A") (A') (A')
                 (A') (A') (A') (A') (A') (A') (A") (A") (A') (A")
                 (A") (A') (A') (A") (A') (A') (A') (A") (A") (A')
                 (A") (A') (A") (A") (A') (A') (A") (A') (A') (A")
                 (A') (A') (A') (A") (A') (A') (A') (A') (A") (A")
                 (A') (A") (A') (A") (A') (A') (A") (A") (A') (A')
                 (A") (A') (A") (A') (A') (A") (A') (A') (A') (A")
                 (A') (A") (A") (A') (A") (A') (A") (A') (A') (A")
                 (A') (A') (A') (A") (A') (A") (A') (A') (A") (A')
                 (A') (A') (A") (A') (A") (A') (A') (A") (A") (A')
                 (A") (A') (A') (A") (A') (A') (A") (A') (A") (A')
                 (A') (A") (A') (A') (A') (A") (A') (A") (A') (A")
                 (A') (A') (A") (A') (A') (A") (A') (A') (A') (A')
                 (A') (A') (A') (A') (A') (A') (A") (A') (A") (A')
                 (A") (A') (A') (A") (A') (A') (A") (A') (A') (A')
                 (A') (A') (A')
 The electronic state is 1-A'.
 Alpha  occ. eigenvalues -- -104.85660 -26.32720 -11.34271 -11.32350 -11.26412
 Alpha  occ. eigenvalues --  -11.24090 -10.58058  -8.04745  -8.04556  -8.04549
 Alpha  occ. eigenvalues --   -1.63974  -1.17174  -1.05646  -1.01329  -0.85291
 Alpha  occ. eigenvalues --   -0.77240  -0.74109  -0.70855  -0.70613  -0.62313
 Alpha  occ. eigenvalues --   -0.59877  -0.57262  -0.52723  -0.52623  -0.46881
 Alpha  occ. eigenvalues --   -0.41903  -0.33818
 Alpha virt. eigenvalues --    0.09850   0.15809   0.16758   0.18359   0.19450
 Alpha virt. eigenvalues --    0.20053   0.22563   0.27617   0.32380   0.33157
 Alpha virt. eigenvalues --    0.37434   0.41595   0.43821   0.45271   0.46110
 Alpha virt. eigenvalues --    0.46878   0.48648   0.49665   0.52040   0.55374
 Alpha virt. eigenvalues --    0.55850   0.56549   0.57499   0.59694   0.60918
 Alpha virt. eigenvalues --    0.62286   0.63469   0.64534   0.66168   0.67377
 Alpha virt. eigenvalues --    0.68679   0.72058   0.75211   0.75980   0.79332
 Alpha virt. eigenvalues --    0.80333   0.82396   0.84542   0.87861   0.89454
 Alpha virt. eigenvalues --    0.92425   0.94480   0.96391   1.00033   1.05732
 Alpha virt. eigenvalues --    1.06907   1.09403   1.09658   1.13672   1.15253
 Alpha virt. eigenvalues --    1.15878   1.20449   1.20577   1.22069   1.22139
 Alpha virt. eigenvalues --    1.29730   1.32077   1.37052   1.37244   1.41222
 Alpha virt. eigenvalues --    1.41394   1.46998   1.48654   1.51114   1.52929
 Alpha virt. eigenvalues --    1.55645   1.61052   1.64657   1.67694   1.71993
 Alpha virt. eigenvalues --    1.76929   1.80577   1.88234   1.99448   2.03930
 Alpha virt. eigenvalues --    2.11030   2.21430   2.23409   2.25837   2.28682
 Alpha virt. eigenvalues --    2.29392   2.30838   2.32792   2.33497   2.36170
 Alpha virt. eigenvalues --    2.38255   2.39438   2.39513   2.42392   2.43431
 Alpha virt. eigenvalues --    2.44868   2.52300   2.57056   2.57391   2.59595
 Alpha virt. eigenvalues --    2.61238   2.62853   2.63149   2.65070   2.65118
 Alpha virt. eigenvalues --    2.66764   2.72566   2.73815   2.77781   2.82423
 Alpha virt. eigenvalues --    2.84357   2.89372   2.90484   2.90818   2.97169
 Alpha virt. eigenvalues --    3.01661   3.04661   3.07666   3.08979   3.13886
 Alpha virt. eigenvalues --    3.16074   3.16592   3.17726   3.21679   3.23499
 Alpha virt. eigenvalues --    3.27668   3.27898   3.30879   3.30939   3.34390
 Alpha virt. eigenvalues --    3.38554   3.38988   3.40356   3.41304   3.41876
 Alpha virt. eigenvalues --    3.44240   3.48836   3.51084   3.52711   3.56156
 Alpha virt. eigenvalues --    3.57768   3.59568   3.63091   3.69493   3.74647
 Alpha virt. eigenvalues --    3.76777   3.77566   3.79758   3.79977   3.85054
 Alpha virt. eigenvalues --    3.87724   3.89118   3.91248   3.95674   4.00163
 Alpha virt. eigenvalues --    4.02137   4.07090   4.07731   4.12149   4.12786
 Alpha virt. eigenvalues --    4.17533   4.20854   4.21363   4.22924   4.32063
 Alpha virt. eigenvalues --    4.36235   4.37481   4.41544   4.44996   4.53193
 Alpha virt. eigenvalues --    4.58401   4.58767   4.64489   4.70248   4.71398
 Alpha virt. eigenvalues --    4.73867   4.80792   4.83373   4.91216   4.98082
 Alpha virt. eigenvalues --    5.06689   5.09270   5.18311   5.21511   5.28531
 Alpha virt. eigenvalues --    5.29656   5.33588   5.35384   5.43649   5.45688
 Alpha virt. eigenvalues --    5.47283   5.57698   5.66612   5.77542   5.87873
 Alpha virt. eigenvalues --    5.93778   6.17843   6.30610   6.33765   6.57987
 Alpha virt. eigenvalues --    6.67499   7.37862   7.38466   7.49615   7.53976
 Alpha virt. eigenvalues --    7.74613   7.86526   8.14353   8.92329   8.98287
 Alpha virt. eigenvalues --    9.24870   9.34616   9.54276   9.88164  11.66287
 Alpha virt. eigenvalues --   12.21899  13.73144  14.57533
          Condensed to atoms (all electrons):
              1          2          3          4          5          6
     1  C    4.669163   0.564647  -0.038466  -0.004785   0.001794   0.000146
     2  C    0.564647   5.041981   0.327527  -0.018505  -0.073690  -0.003971
     3  C   -0.038466   0.327527   4.960604   0.419728   0.621817  -0.045582
     4  H   -0.004785  -0.018505   0.419728   0.440534  -0.042073   0.003298
     5  C    0.001794  -0.073690   0.621817  -0.042073   4.964300   0.420387
     6  H    0.000146  -0.003971  -0.045582   0.003298   0.420387   0.486948
     7  H   -0.000079   0.004466  -0.050624  -0.003606   0.428249  -0.027676
     8  F    0.304197  -0.067617   0.003978   0.004706   0.000628  -0.000016
     9  Cl  -0.051991   0.273406  -0.044883   0.002464  -0.013000   0.006211
    10  H    0.448672  -0.090840   0.008286   0.000243  -0.000205  -0.000006
              7          8          9         10
     1  C   -0.000079   0.304197  -0.051991   0.448672
     2  C    0.004466  -0.067617   0.273406  -0.090840
     3  C   -0.050624   0.003978  -0.044883   0.008286
     4  H   -0.003606   0.004706   0.002464   0.000243
     5  C    0.428249   0.000628  -0.013000  -0.000205
     6  H   -0.027676  -0.000016   0.006211  -0.000006
     7  H    0.494774  -0.000024  -0.000191   0.000007
     8  F   -0.000024   9.007929   0.001915  -0.026860
     9  Cl  -0.000191   0.001915  16.957488   0.004026
    10  H    0.000007  -0.026860   0.004026   0.484057
 Mulliken atomic charges:
              1
     1  C    0.106701
     2  C    0.042595
     3  C   -0.162386
     4  H    0.197994
     5  C   -0.308209
     6  H    0.160261
     7  H    0.154704
     8  F   -0.228835
     9  Cl  -0.135446
    10  H    0.172620
 Sum of Mulliken atomic charges =   0.00000
 Mulliken charges with hydrogens summed into heavy atoms:
              1
     1  C    0.279321
     2  C    0.042595
     3  C    0.035609
     5  C    0.006756
     8  F   -0.228835
     9  Cl  -0.135446
 Sum of Mulliken charges with hydrogens summed into heavy atoms =   0.00000
 Electronic spatial extent (au):  <R**2>=            778.8177
 Charge=              0.0000 electrons
 Dipole moment (field-independent basis, Debye):
    X=              0.2188    Y=              0.0200    Z=              0.0000  Tot=              0.2197
 Quadrupole moment (field-independent basis, Debye-Ang):
   XX=            -36.2670   YY=            -43.5600   ZZ=            -44.4572
   XY=             -1.7703   XZ=              0.0000   YZ=              0.0000
 Traceless Quadrupole moment (field-independent basis, Debye-Ang):
   XX=              5.1611   YY=             -2.1319   ZZ=             -3.0291
   XY=             -1.7703   XZ=              0.0000   YZ=              0.0000
 Octapole moment (field-independent basis, Debye-Ang**2):
  XXX=            -10.1388  YYY=             -1.1013  ZZZ=              0.0000  XYY=              4.4734
  XXY=             -2.1082  XXZ=              0.0000  XZZ=             -6.9665  YZZ=             -2.4705
  YYZ=              0.0000  XYZ=              0.0000
 Hexadecapole moment (field-independent basis, Debye-Ang**3):
 XXXX=           -407.3217 YYYY=           -437.2228 ZZZZ=            -48.8570 XXXY=            -28.7908
 XXXZ=              0.0000 YYYX=            -35.2756 YYYZ=              0.0000 ZZZX=              0.0000
 ZZZY=              0.0000 XXYY=           -153.9279 XXZZ=            -93.4551 YYZZ=            -84.7191
 XXYZ=              0.0000 YYXZ=              0.0000 ZZXY=             -5.1507
 N-N= 2.622206758704D+02 E-N=-2.214575518299D+03  KE= 7.121861962433D+02
 Symmetry A'   KE= 6.559650759329D+02
 Symmetry A"   KE= 5.622112031037D+01
 Calling FoFJK, ICntrl=      2127 FMM=F ISym2X=1 I1Cent= 0 IOpClX= 0 NMat=1 NMatS=1 NMatT=0.
 ***** Axes restored to original set *****
 -------------------------------------------------------------------
 Center     Atomic                   Forces (Hartrees/Bohr)
 Number     Number              X              Y              Z
 -------------------------------------------------------------------
      1        6           0.033146912    0.042112939    0.000000000
      2        6           0.022817440   -0.052341207    0.000000000
      3        6          -0.015786252    0.062134762    0.000000000
      4        1          -0.007664410   -0.003944497    0.000000000
      5        6          -0.022654639   -0.043893566    0.000000000
      6        1           0.004239604    0.002138631    0.000000000
      7        1           0.001608435    0.002190833    0.000000000
      8        9          -0.023446839    0.026728824    0.000000000
      9       17           0.006934717   -0.019064743    0.000000000
     10        1           0.000805030   -0.016061977    0.000000000
 -------------------------------------------------------------------
 Cartesian Forces:  Max     0.062134762 RMS     0.022151658

 GradGradGradGradGradGradGradGradGradGradGradGradGradGradGradGradGradGrad
 Berny optimization.
 Internal  Forces:  Max     0.050995336 RMS     0.016818440
 Search for a local minimum.
 Step number   1 out of a maximum of   43
 All quantities printed in internal units (Hartrees-Bohrs-Radians)
 Mixed Optimization -- RFO/linear search
 Second derivative matrix not updated -- first step.
     Eigenvalues ---    0.00237   0.01459   0.01463   0.02681   0.02681
     Eigenvalues ---    0.02681   0.02681   0.16000   0.16000   0.16000
     Eigenvalues ---    0.16000   0.22000   0.22000   0.25000   0.25000
     Eigenvalues ---    0.28519   0.29539   0.37230   0.37230   0.37230
     Eigenvalues ---    0.37230   0.53930   0.53930   0.550211000.00000
     Eigenvalues --- 1000.000001000.000001000.000001000.000001000.00000
     Eigenvalues --- 1000.000001000.000001000.00000
 RFO step:  Lambda=-2.40980109D-02 EMin= 2.36824121D-03
 Linear search not attempted -- first point.
 Iteration  1 RMS(Cart)=  0.05705960 RMS(Int)=  0.00157189
 Iteration  2 RMS(Cart)=  0.00270876 RMS(Int)=  0.00000102
 Iteration  3 RMS(Cart)=  0.00000118 RMS(Int)=  0.00000000
 Iteration  4 RMS(Cart)=  0.00000000 RMS(Int)=  0.00000000
 ClnCor:  largest displacement from symmetrization is 7.11D-16 for atom     6.
 Variable       Old X    -DE/DX   Delta X   Delta X   Delta X     New X
                                 (Linear)    (Quad)   (Total)
    R1        2.56096  -0.05100   0.00000  -0.09051  -0.09051   2.47044
    R2        2.55113  -0.03486   0.00000  -0.06069  -0.06069   2.49044
    R3        2.02201  -0.00081   0.00000  -0.00203  -0.00203   2.01998
    R4        2.91018  -0.04026   0.00000  -0.13016  -0.13016   2.78002
    R5        3.32592  -0.01998   0.00000  -0.06255  -0.06255   3.26337
    R6        2.02201  -0.00040   0.00000  -0.00101  -0.00101   2.02100
    R7        2.56096  -0.04265   0.00000  -0.07569  -0.07569   2.48526
    R8        2.02201  -0.00023   0.00000  -0.00058  -0.00058   2.02143
    R9        2.02201   0.00160   0.00000   0.00402   0.00402   2.02603
    A1        2.09836   0.00110   0.00000   0.00449   0.00449   2.10285
    A2        2.09241   0.01569   0.00000   0.08596   0.08596   2.17837
    A3        2.09241  -0.01679   0.00000  -0.09045  -0.09045   2.00196
    A4        2.09241   0.01576   0.00000   0.05748   0.05748   2.14990
    A5        2.09836  -0.01368   0.00000  -0.04990  -0.04990   2.04846
    A6        2.09241  -0.00208   0.00000  -0.00758  -0.00758   2.08483
    A7        2.09241  -0.01793   0.00000  -0.08507  -0.08507   2.00735
    A8        2.09836   0.01844   0.00000   0.07556   0.07556   2.17391
    A9        2.09241  -0.00052   0.00000   0.00951   0.00951   2.10192
   A10        2.09836   0.00491   0.00000   0.02667   0.02667   2.12503
   A11        2.09241  -0.00023   0.00000  -0.00125  -0.00125   2.09116
   A12        2.09241  -0.00468   0.00000  -0.02542  -0.02542   2.06699
    D1        0.00000   0.00000   0.00000   0.00000   0.00000   0.00000
    D2        3.14159   0.00000   0.00000   0.00000   0.00000   3.14159
    D3        3.14159   0.00000   0.00000   0.00000   0.00000   3.14159
    D4        0.00000   0.00000   0.00000   0.00000   0.00000   0.00000
    D5        0.00000   0.00000   0.00000   0.00000   0.00000   0.00000
    D6        3.14159   0.00000   0.00000   0.00000   0.00000   3.14159
    D7        3.14159   0.00000   0.00000   0.00000   0.00000   3.14159
    D8        0.00000   0.00000   0.00000   0.00000   0.00000   0.00000
    D9        0.00000   0.00000   0.00000   0.00000   0.00000   0.00000
   D10        3.14159   0.00000   0.00000   0.00000   0.00000   3.14159
   D11        3.14159   0.00000   0.00000   0.00000   0.00000   3.14159
   D12        0.00000   0.00000   0.00000   0.00000   0.00000   0.00000
         Item               Value     Threshold  Converged?
 Maximum Force            0.050995     0.000450     NO 
 RMS     Force            0.016818     0.000300     NO 
 Maximum Displacement     0.150360     0.001800     NO 
 RMS     Displacement     0.057693     0.001200     NO 
 Predicted change in Energy=-1.294449D-02
 GradGradGradGradGradGradGradGradGradGradGradGradGradGradGradGradGradGrad

                          Input orientation:                          
 ---------------------------------------------------------------------
 Center     Atomic      Atomic             Coordinates (Angstroms)
 Number     Number       Type             X           Y           Z
 ---------------------------------------------------------------------
      1          6           0       -2.075167   -1.665302    0.000000
      2          6           0       -1.404125   -0.543366    0.000000
      3          6           0        0.065816   -0.484433    0.000000
      4          1           0        0.556467   -1.434707    0.000000
      5          6           0        0.767795    0.627696    0.000000
      6          1           0        0.299131    1.589255    0.000000
      7          1           0        1.838948    0.581949    0.000000
      8          9           0       -1.443672   -2.822033    0.000000
      9         17           0       -2.312788    0.925140    0.000000
     10          1           0       -3.141582   -1.738518    0.000000
 ---------------------------------------------------------------------
                    Distance matrix (angstroms):
                    1          2          3          4          5
     1  C    0.000000
     2  C    1.307302   0.000000
     3  C    2.445048   1.471122   0.000000
     4  H    2.641718   2.153697   1.069467   0.000000
     5  C    3.652434   2.467513   1.315144   2.073202   0.000000
     6  H    4.028578   2.729314   2.086773   3.034892   1.069693
     7  H    4.513362   3.432762   2.069098   2.389908   1.072130
     8  F    1.317882   2.279010   2.782612   2.434180   4.097708
     9  Cl   2.601318   1.726899   2.764897   3.715038   3.094909
    10  H    1.068925   2.108826   3.443854   3.710508   4.569704
                    6          7          8          9         10
     6  H    0.000000
     7  H    1.840028   0.000000
     8  F    4.743082   4.728920   0.000000
     9  Cl   2.695027   4.165897   3.846644   0.000000
    10  H    4.786709   5.494566   2.014175   2.789619   0.000000
 Stoichiometry    C4H4ClF
 Framework group  CS[SG(C4H4ClF)]
 Deg. of freedom    17
 Full point group                 CS      NOp   2
 Largest Abelian subgroup         CS      NOp   2
 Largest concise Abelian subgroup C1      NOp   1
                         Standard orientation:                         
 ---------------------------------------------------------------------
 Center     Atomic      Atomic             Coordinates (Angstroms)
 Number     Number       Type             X           Y           Z
 ---------------------------------------------------------------------
      1          6           0       -0.404015    1.420065    0.000000
      2          6           0        0.000000    0.176758    0.000000
      3          6           0       -0.922177   -0.969448    0.000000
      4          1           0       -1.960748   -0.714240    0.000000
      5          6           0       -0.545894   -2.229613    0.000000
      6          1           0        0.486721   -2.508806    0.000000
      7          1           0       -1.284709   -3.006538    0.000000
      8          9           0       -1.690744    1.704918    0.000000
      9         17           0        1.703876   -0.104288    0.000000
     10          1           0        0.242058    2.271646    0.000000
 ---------------------------------------------------------------------
 Rotational constants (GHZ):      3.7011878      2.3749745      1.4466741
 Standard basis: CC-pVTZ (5D, 7F)
 There are   163 symmetry adapted basis functions of A'  symmetry.
 There are    77 symmetry adapted basis functions of A"  symmetry.
 Integral buffers will be    131072 words long.
 Raffenetti 1 integral format.
 Two-electron integral symmetry is turned on.
   240 basis functions,   422 primitive gaussians,   274 cartesian basis functions
    27 alpha electrons       27 beta electrons
       nuclear repulsion energy       268.5587659848 Hartrees.
 NAtoms=   10 NActive=   10 NUniq=   10 SFac= 7.50D-01 NAtFMM=   80 NAOKFM=F Big=F
 One-electron integrals computed using PRISM.
 NBasis=   240 RedAO= T  NBF=   163    77
 NBsUse=   240 1.00D-06 NBFU=   163    77
 Initial guess read from the read-write file.
 B after Tr=     0.000000    0.000000    0.000000
         Rot=    1.000000    0.000000    0.000000    0.000000 Ang=   0.00 deg.
 Initial guess orbital symmetries:
       Occupied  (A') (A') (A') (A') (A') (A') (A') (A') (A') (A")
                 (A') (A') (A') (A') (A') (A') (A') (A') (A") (A')
                 (A') (A') (A") (A') (A') (A") (A")
       Virtual   (A") (A') (A') (A') (A') (A") (A') (A') (A') (A')
                 (A') (A") (A') (A') (A") (A') (A') (A") (A') (A')
                 (A") (A") (A') (A') (A') (A") (A') (A') (A') (A")
                 (A') (A') (A") (A') (A') (A') (A") (A') (A") (A')
                 (A") (A') (A') (A') (A") (A') (A") (A') (A') (A')
                 (A") (A") (A') (A") (A') (A') (A') (A") (A') (A")
                 (A') (A') (A') (A') (A") (A') (A') (A") (A') (A')
                 (A') (A') (A') (A') (A') (A') (A") (A") (A') (A")
                 (A") (A') (A') (A") (A') (A') (A') (A") (A") (A')
                 (A") (A') (A") (A") (A') (A') (A") (A') (A') (A")
                 (A') (A') (A') (A") (A') (A') (A') (A') (A") (A")
                 (A') (A") (A') (A") (A') (A') (A") (A") (A') (A')
                 (A") (A') (A") (A') (A') (A") (A') (A') (A') (A")
                 (A') (A") (A") (A') (A") (A') (A") (A') (A') (A")
                 (A') (A') (A') (A") (A') (A") (A') (A') (A") (A')
                 (A') (A') (A") (A') (A") (A') (A') (A") (A") (A')
                 (A") (A') (A') (A") (A') (A') (A") (A') (A") (A')
                 (A') (A") (A') (A') (A') (A") (A') (A") (A') (A")
                 (A') (A') (A") (A') (A') (A") (A') (A') (A') (A')
                 (A') (A') (A') (A') (A') (A') (A") (A') (A") (A')
                 (A") (A') (A') (A") (A') (A') (A") (A') (A') (A')
                 (A') (A') (A')
 Harris functional with IExCor=  205 diagonalized for initial guess.
 ExpMin= 1.03D-01 ExpMax= 4.56D+05 ExpMxC= 1.44D+03 IAcc=2 IRadAn=         0 AccDes= 0.00D+00
 HarFok:  IExCor=  205 AccDes= 0.00D+00 IRadAn=         0 IDoV= 1
 ScaDFX=  1.000000  1.000000  1.000000  1.000000
 FoFCou: FMM=F IPFlag=           0 FMFlag=      100000 FMFlg1=           0
         NFxFlg=           0 DoJE=T BraDBF=F KetDBF=T FulRan=T
         Omega=  0.000000  0.000000  1.000000  0.000000  0.000000 ICntrl=     500 IOpCl=  0
         NMat0=    1 NMatS0=    1 NMatT0=    0 NMatD0=    1 NMtDS0=    0 NMtDT0=    0
         I1Cent=           4 NGrid=           0.
 Petite list used in FoFCou.
 Requested convergence on RMS density matrix=1.00D-08 within 128 cycles.
 Requested convergence on MAX density matrix=1.00D-06.
 Requested convergence on             energy=1.00D-06.
 No special actions if energy rises.
 Keep R1 ints in memory in canonical form, NReq=720370894.
 SCF Done:  E(RHF) =  -712.796985715     A.U. after   13 cycles
             Convg  =    0.9237D-08             -V/T =  2.0000
 Calling FoFJK, ICntrl=      2127 FMM=F ISym2X=1 I1Cent= 0 IOpClX= 0 NMat=1 NMatS=1 NMatT=0.
 ***** Axes restored to original set *****
 -------------------------------------------------------------------
 Center     Atomic                   Forces (Hartrees/Bohr)
 Number     Number              X              Y              Z
 -------------------------------------------------------------------
      1        6          -0.002991837   -0.003712860    0.000000000
      2        6           0.010429013   -0.000235715    0.000000000
      3        6          -0.006439813    0.004991872    0.000000000
      4        1           0.000146315   -0.002131913    0.000000000
      5        6           0.002460163   -0.001785254    0.000000000
      6        1           0.001585132    0.001896834    0.000000000
      7        1           0.000358265    0.001796233    0.000000000
      8        9          -0.002733188   -0.002937331    0.000000000
      9       17          -0.003035302    0.004528901    0.000000000
     10        1           0.000221250   -0.002410766    0.000000000
 -------------------------------------------------------------------
 Cartesian Forces:  Max     0.010429013 RMS     0.003016072

 GradGradGradGradGradGradGradGradGradGradGradGradGradGradGradGradGradGrad
 Berny optimization.
 Using GEDIIS/GDIIS optimizer.
 Internal  Forces:  Max     0.010601284 RMS     0.002946928
 Search for a local minimum.
 Step number   2 out of a maximum of   43
 All quantities printed in internal units (Hartrees-Bohrs-Radians)
 Mixed Optimization -- RFO/linear search
 Update second derivatives using D2CorX and points    1    2
 DE= -1.26D-02 DEPred=-1.29D-02 R= 9.71D-01
 SS=  1.41D+00  RLast= 2.73D-01 DXNew= 5.0454D-01 8.1785D-01
 Trust test= 9.71D-01 RLast= 2.73D-01 DXMaxT set to 5.05D-01
 Use linear search instead of GDIIS.
     Eigenvalues ---    0.00237   0.01435   0.01520   0.02681   0.02681
     Eigenvalues ---    0.02681   0.02681   0.15363   0.16000   0.16000
     Eigenvalues ---    0.16103   0.20796   0.22132   0.24738   0.25012
     Eigenvalues ---    0.28302   0.30745   0.37222   0.37230   0.37230
     Eigenvalues ---    0.37255   0.53758   0.54745   0.621861000.00000
     Eigenvalues --- 1000.000001000.000001000.000001000.000001000.00000
     Eigenvalues --- 1000.000001000.000001000.00000
 RFO step:  Lambda=-9.43335344D-04 EMin= 2.36824121D-03
 Quartic linear search produced a step of  0.00420.
 Iteration  1 RMS(Cart)=  0.02318254 RMS(Int)=  0.00017107
 Iteration  2 RMS(Cart)=  0.00019500 RMS(Int)=  0.00000000
 Iteration  3 RMS(Cart)=  0.00000001 RMS(Int)=  0.00000000
 ClnCor:  largest displacement from symmetrization is 1.11D-15 for atom     9.
 Variable       Old X    -DE/DX   Delta X   Delta X   Delta X     New X
                                 (Linear)    (Quad)   (Total)
    R1        2.47044   0.01060  -0.00038   0.01702   0.01664   2.48708
    R2        2.49044   0.00127  -0.00026   0.00051   0.00026   2.49069
    R3        2.01998  -0.00006  -0.00001  -0.00021  -0.00022   2.01976
    R4        2.78002  -0.00170  -0.00055  -0.00975  -0.01030   2.76972
    R5        3.26337   0.00545  -0.00026   0.01663   0.01637   3.27973
    R6        2.02100   0.00196   0.00000   0.00525   0.00524   2.02624
    R7        2.48526   0.00396  -0.00032   0.00512   0.00480   2.49007
    R8        2.02143   0.00101   0.00000   0.00270   0.00270   2.02413
    R9        2.02603   0.00028   0.00002   0.00087   0.00089   2.02692
    A1        2.10285   0.00469   0.00002   0.02144   0.02146   2.12431
    A2        2.17837   0.00010   0.00036   0.00703   0.00739   2.18577
    A3        2.00196  -0.00479  -0.00038  -0.02847  -0.02885   1.97311
    A4        2.14990   0.00296   0.00024   0.01353   0.01377   2.16367
    A5        2.04846  -0.00181  -0.00021  -0.00867  -0.00888   2.03958
    A6        2.08483  -0.00116  -0.00003  -0.00486  -0.00489   2.07994
    A7        2.00735  -0.00368  -0.00036  -0.02062  -0.02097   1.98638
    A8        2.17391   0.00565   0.00032   0.02785   0.02817   2.20208
    A9        2.10192  -0.00197   0.00004  -0.00724  -0.00720   2.09472
   A10        2.12503   0.00182   0.00011   0.01210   0.01221   2.13724
   A11        2.09116   0.00092  -0.00001   0.00573   0.00573   2.09689
   A12        2.06699  -0.00274  -0.00011  -0.01783  -0.01794   2.04906
    D1        0.00000   0.00000   0.00000   0.00000   0.00000   0.00000
    D2        3.14159   0.00000   0.00000   0.00000   0.00000   3.14159
    D3        3.14159   0.00000   0.00000   0.00000   0.00000   3.14159
    D4        0.00000   0.00000   0.00000   0.00000   0.00000   0.00000
    D5        0.00000   0.00000   0.00000   0.00000   0.00000   0.00000
    D6        3.14159   0.00000   0.00000   0.00000   0.00000   3.14159
    D7        3.14159   0.00000   0.00000   0.00000   0.00000   3.14159
    D8        0.00000   0.00000   0.00000   0.00000   0.00000   0.00000
    D9        0.00000   0.00000   0.00000   0.00000   0.00000   0.00000
   D10        3.14159   0.00000   0.00000   0.00000   0.00000   3.14159
   D11        3.14159   0.00000   0.00000   0.00000   0.00000   3.14159
   D12        0.00000   0.00000   0.00000   0.00000   0.00000   0.00000
         Item               Value     Threshold  Converged?
 Maximum Force            0.010601     0.000450     NO 
 RMS     Force            0.002947     0.000300     NO 
 Maximum Displacement     0.069503     0.001800     NO 
 RMS     Displacement     0.023114     0.001200     NO 
 Predicted change in Energy=-4.750315D-04
 GradGradGradGradGradGradGradGradGradGradGradGradGradGradGradGradGradGrad

                          Input orientation:                          
 ---------------------------------------------------------------------
 Center     Atomic      Atomic             Coordinates (Angstroms)
 Number     Number       Type             X           Y           Z
 ---------------------------------------------------------------------
      1          6           0       -2.077606   -1.676329    0.000000
      2          6           0       -1.402524   -0.546551    0.000000
      3          6           0        0.060989   -0.467056    0.000000
      4          1           0        0.546443   -1.423108    0.000000
      5          6           0        0.779829    0.637284    0.000000
      6          1           0        0.335911    1.612084    0.000000
      7          1           0        1.851040    0.582677    0.000000
      8          9           0       -1.470519   -2.846207    0.000000
      9         17           0       -2.329439    0.920758    0.000000
     10          1           0       -3.143301   -1.757872    0.000000
 ---------------------------------------------------------------------
                    Distance matrix (angstroms):
                    1          2          3          4          5
     1  C    0.000000
     2  C    1.316105   0.000000
     3  C    2.456813   1.465670   0.000000
     4  H    2.636239   2.137013   1.072241   0.000000
     5  C    3.676647   2.482766   1.317686   2.073567   0.000000
     6  H    4.079059   2.771617   2.097237   3.042485   1.071121
     7  H    4.531817   3.443956   2.075144   2.392727   1.072602
     8  F    1.318017   2.300660   2.829466   2.468471   4.147140
     9  Cl   2.609268   1.735560   2.764086   3.710041   3.122163
    10  H    1.068810   2.120755   3.454516   3.704899   4.596490
                    6          7          8          9         10
     6  H    0.000000
     7  H    1.831747   0.000000
     8  F    4.810358   4.773887   0.000000
     9  Cl   2.753546   4.194127   3.863647   0.000000
    10  H    4.843709   5.515579   1.995663   2.799541   0.000000
 Stoichiometry    C4H4ClF
 Framework group  CS[SG(C4H4ClF)]
 Deg. of freedom    17
 Full point group                 CS      NOp   2
 Largest Abelian subgroup         CS      NOp   2
 Largest concise Abelian subgroup C1      NOp   1
                         Standard orientation:                         
 ---------------------------------------------------------------------
 Center     Atomic      Atomic             Coordinates (Angstroms)
 Number     Number       Type             X           Y           Z
 ---------------------------------------------------------------------
      1          6           0       -0.361563    1.434523    0.000000
      2          6           0        0.000000    0.169057    0.000000
      3          6           0       -0.943791   -0.952303    0.000000
      4          1           0       -1.973067   -0.651816    0.000000
      5          6           0       -0.630724   -2.232259    0.000000
      6          1           0        0.383789   -2.575860    0.000000
      7          1           0       -1.403757   -2.975828    0.000000
      8          9           0       -1.629979    1.792696    0.000000
      9         17           0        1.704170   -0.159537    0.000000
     10          1           0        0.308437    2.267263    0.000000
 ---------------------------------------------------------------------
 Rotational constants (GHZ):      3.6531287      2.3462299      1.4286660
 Standard basis: CC-pVTZ (5D, 7F)
 There are   163 symmetry adapted basis functions of A'  symmetry.
 There are    77 symmetry adapted basis functions of A"  symmetry.
 Integral buffers will be    131072 words long.
 Raffenetti 1 integral format.
 Two-electron integral symmetry is turned on.
   240 basis functions,   422 primitive gaussians,   274 cartesian basis functions
    27 alpha electrons       27 beta electrons
       nuclear repulsion energy       267.3477390644 Hartrees.
 NAtoms=   10 NActive=   10 NUniq=   10 SFac= 7.50D-01 NAtFMM=   80 NAOKFM=F Big=F
 One-electron integrals computed using PRISM.
 NBasis=   240 RedAO= T  NBF=   163    77
 NBsUse=   240 1.00D-06 NBFU=   163    77
 Initial guess read from the read-write file.
 B after Tr=     0.000000    0.000000    0.000000
         Rot=    1.000000    0.000000    0.000000    0.000000 Ang=   0.00 deg.
 Initial guess orbital symmetries:
       Occupied  (A') (A') (A') (A') (A') (A') (A') (A') (A') (A")
                 (A') (A') (A') (A') (A') (A') (A') (A") (A') (A')
                 (A') (A') (A") (A') (A') (A") (A")
       Virtual   (A") (A') (A') (A') (A') (A") (A') (A') (A') (A')
                 (A') (A") (A') (A') (A") (A') (A') (A") (A') (A")
                 (A') (A") (A') (A') (A') (A") (A') (A') (A") (A')
                 (A') (A') (A") (A') (A') (A') (A") (A') (A") (A')
                 (A") (A') (A') (A') (A") (A') (A') (A") (A') (A")
                 (A') (A") (A') (A") (A') (A') (A') (A") (A') (A')
                 (A") (A') (A') (A') (A') (A") (A') (A") (A') (A')
                 (A') (A') (A') (A') (A') (A') (A") (A") (A') (A")
                 (A") (A') (A') (A") (A') (A') (A") (A') (A") (A')
                 (A") (A") (A') (A") (A') (A') (A') (A") (A') (A')
                 (A") (A') (A') (A") (A') (A') (A') (A') (A") (A")
                 (A') (A") (A") (A') (A') (A") (A") (A') (A') (A')
                 (A") (A') (A") (A') (A') (A") (A') (A") (A') (A')
                 (A') (A") (A") (A') (A") (A") (A') (A') (A') (A')
                 (A") (A') (A') (A") (A') (A') (A') (A") (A") (A')
                 (A') (A") (A') (A') (A") (A') (A") (A') (A") (A')
                 (A") (A') (A') (A") (A') (A') (A") (A') (A') (A")
                 (A') (A") (A') (A') (A') (A") (A') (A") (A') (A")
                 (A') (A") (A') (A') (A") (A') (A') (A') (A') (A')
                 (A') (A') (A') (A') (A') (A') (A") (A') (A") (A')
                 (A") (A') (A') (A") (A') (A") (A') (A') (A') (A')
                 (A') (A') (A')
 Harris functional with IExCor=  205 diagonalized for initial guess.
 ExpMin= 1.03D-01 ExpMax= 4.56D+05 ExpMxC= 1.44D+03 IAcc=2 IRadAn=         0 AccDes= 0.00D+00
 HarFok:  IExCor=  205 AccDes= 0.00D+00 IRadAn=         0 IDoV= 1
 ScaDFX=  1.000000  1.000000  1.000000  1.000000
 FoFCou: FMM=F IPFlag=           0 FMFlag=      100000 FMFlg1=           0
         NFxFlg=           0 DoJE=T BraDBF=F KetDBF=T FulRan=T
         Omega=  0.000000  0.000000  1.000000  0.000000  0.000000 ICntrl=     500 IOpCl=  0
         NMat0=    1 NMatS0=    1 NMatT0=    0 NMatD0=    1 NMtDS0=    0 NMtDT0=    0
         I1Cent=           4 NGrid=           0.
 Petite list used in FoFCou.
 Requested convergence on RMS density matrix=1.00D-08 within 128 cycles.
 Requested convergence on MAX density matrix=1.00D-06.
 Requested convergence on             energy=1.00D-06.
 No special actions if energy rises.
 Keep R1 ints in memory in canonical form, NReq=720370894.
 SCF Done:  E(RHF) =  -712.797394456     A.U. after   11 cycles
             Convg  =    0.4057D-08             -V/T =  2.0001
 Calling FoFJK, ICntrl=      2127 FMM=F ISym2X=1 I1Cent= 0 IOpClX= 0 NMat=1 NMatS=1 NMatT=0.
 ***** Axes restored to original set *****
 -------------------------------------------------------------------
 Center     Atomic                   Forces (Hartrees/Bohr)
 Number     Number              X              Y              Z
 -------------------------------------------------------------------
      1        6          -0.000014226    0.001578451    0.000000000
      2        6           0.000477920   -0.003847433    0.000000000
      3        6          -0.000685792    0.000772031    0.000000000
      4        1           0.000675108   -0.000465831    0.000000000
      5        6          -0.000540572   -0.001245772    0.000000000
      6        1          -0.000026300    0.000417711    0.000000000
      7        1          -0.000082993    0.000121229    0.000000000
      8        9           0.001291747    0.000290569    0.000000000
      9       17          -0.000927177    0.001295462    0.000000000
     10        1          -0.000167715    0.001083583    0.000000000
 -------------------------------------------------------------------
 Cartesian Forces:  Max     0.003847433 RMS     0.000945094

 GradGradGradGradGradGradGradGradGradGradGradGradGradGradGradGradGradGrad
 Berny optimization.
 Using GEDIIS/GDIIS optimizer.
 Internal  Forces:  Max     0.003103851 RMS     0.000787612
 Search for a local minimum.
 Step number   3 out of a maximum of   43
 All quantities printed in internal units (Hartrees-Bohrs-Radians)
 Mixed Optimization -- En-DIIS/RFO-DIIS
 Update second derivatives using D2CorX and points    1    2    3
 DE= -4.09D-04 DEPred=-4.75D-04 R= 8.60D-01
 SS=  1.41D+00  RLast= 6.43D-02 DXNew= 8.4853D-01 1.9299D-01
 Trust test= 8.60D-01 RLast= 6.43D-02 DXMaxT set to 5.05D-01
 Use linear search instead of GDIIS.
     Eigenvalues ---    0.00237   0.01433   0.01526   0.02681   0.02681
     Eigenvalues ---    0.02681   0.02681   0.15245   0.16000   0.16013
     Eigenvalues ---    0.16966   0.20306   0.22932   0.24543   0.25035
     Eigenvalues ---    0.27917   0.30579   0.37079   0.37230   0.37230
     Eigenvalues ---    0.37242   0.53958   0.55248   0.671971000.00000
     Eigenvalues --- 1000.000001000.000001000.000001000.000001000.00000
     Eigenvalues --- 1000.000001000.000001000.00000
 RFO step:  Lambda=-3.84098934D-05 EMin= 2.36824121D-03
 Quartic linear search produced a step of -0.11466.
 Iteration  1 RMS(Cart)=  0.00321966 RMS(Int)=  0.00000460
 Iteration  2 RMS(Cart)=  0.00000473 RMS(Int)=  0.00000000
 Iteration  3 RMS(Cart)=  0.00000000 RMS(Int)=  0.00000000
 ClnCor:  largest displacement from symmetrization is 4.02D-15 for atom     7.
 Variable       Old X    -DE/DX   Delta X   Delta X   Delta X     New X
                                 (Linear)    (Quad)   (Total)
    R1        2.48708  -0.00310  -0.00191  -0.00234  -0.00424   2.48283
    R2        2.49069   0.00034  -0.00003   0.00070   0.00067   2.49136
    R3        2.01976   0.00008   0.00002   0.00017   0.00020   2.01995
    R4        2.76972  -0.00068   0.00118  -0.00348  -0.00230   2.76742
    R5        3.27973   0.00159  -0.00188   0.00745   0.00557   3.28530
    R6        2.02624   0.00072  -0.00060   0.00254   0.00194   2.02818
    R7        2.49007  -0.00095  -0.00055  -0.00067  -0.00122   2.48885
    R8        2.02413   0.00039  -0.00031   0.00135   0.00105   2.02517
    R9        2.02692  -0.00009  -0.00010  -0.00008  -0.00018   2.02674
    A1        2.12431  -0.00139  -0.00246  -0.00228  -0.00474   2.11957
    A2        2.18577  -0.00041  -0.00085  -0.00235  -0.00320   2.18257
    A3        1.97311   0.00180   0.00331   0.00464   0.00795   1.98105
    A4        2.16367   0.00018  -0.00158   0.00266   0.00108   2.16475
    A5        2.03958  -0.00024   0.00102  -0.00214  -0.00112   2.03846
    A6        2.07994   0.00006   0.00056  -0.00052   0.00004   2.07998
    A7        1.98638   0.00064   0.00240   0.00009   0.00249   1.98887
    A8        2.20208  -0.00048  -0.00323   0.00227  -0.00096   2.20113
    A9        2.09472  -0.00015   0.00083  -0.00236  -0.00154   2.09319
   A10        2.13724   0.00012  -0.00140   0.00251   0.00111   2.13835
   A11        2.09689   0.00006  -0.00066   0.00120   0.00055   2.09744
   A12        2.04906  -0.00018   0.00206  -0.00372  -0.00166   2.04740
    D1        0.00000   0.00000   0.00000   0.00000   0.00000   0.00000
    D2        3.14159   0.00000   0.00000   0.00000   0.00000   3.14159
    D3        3.14159   0.00000   0.00000   0.00000   0.00000   3.14159
    D4        0.00000   0.00000   0.00000   0.00000   0.00000   0.00000
    D5        0.00000   0.00000   0.00000   0.00000   0.00000   0.00000
    D6        3.14159   0.00000   0.00000   0.00000   0.00000   3.14159
    D7        3.14159   0.00000   0.00000   0.00000   0.00000   3.14159
    D8        0.00000   0.00000   0.00000   0.00000   0.00000   0.00000
    D9        0.00000   0.00000   0.00000   0.00000   0.00000   0.00000
   D10        3.14159   0.00000   0.00000   0.00000   0.00000   3.14159
   D11        3.14159   0.00000   0.00000   0.00000   0.00000   3.14159
   D12        0.00000   0.00000   0.00000   0.00000   0.00000   0.00000
         Item               Value     Threshold  Converged?
 Maximum Force            0.003104     0.000450     NO 
 RMS     Force            0.000788     0.000300     NO 
 Maximum Displacement     0.010079     0.001800     NO 
 RMS     Displacement     0.003220     0.001200     NO 
 Predicted change in Energy=-2.603227D-05
 GradGradGradGradGradGradGradGradGradGradGradGradGradGradGradGradGradGrad

                          Input orientation:                          
 ---------------------------------------------------------------------
 Center     Atomic      Atomic             Coordinates (Angstroms)
 Number     Number       Type             X           Y           Z
 ---------------------------------------------------------------------
      1          6           0       -2.077170   -1.675582    0.000000
      2          6           0       -1.401989   -0.548482    0.000000
      3          6           0        0.060312   -0.469093    0.000000
      4          1           0        0.548588   -1.424858    0.000000
      5          6           0        0.777776    0.635372    0.000000
      6          1           0        0.333809    1.610758    0.000000
      7          1           0        1.848970    0.582351    0.000000
      8          9           0       -1.465672   -2.843559    0.000000
      9         17           0       -2.330490    0.921311    0.000000
     10          1           0       -3.143310   -1.752538    0.000000
 ---------------------------------------------------------------------
                    Distance matrix (angstroms):
                    1          2          3          4          5
     1  C    0.000000
     2  C    1.313859   0.000000
     3  C    2.454474   1.464454   0.000000
     4  H    2.637701   2.138407   1.073267   0.000000
     5  C    3.673041   2.480501   1.317042   2.072939   0.000000
     6  H    4.075887   2.770435   2.097756   3.043205   1.071674
     7  H    4.529110   3.442022   2.074809   2.391628   1.072505
     8  F    1.318369   2.295960   2.822537   2.463728   4.139568
     9  Cl   2.609220   1.738507   2.765711   3.713974   3.121390
    10  H    1.068914   2.117062   3.451148   3.706411   4.590973
                    6          7          8          9         10
     6  H    0.000000
     7  H    1.831211   0.000000
     8  F    4.804068   4.766939   0.000000
     9  Cl   2.752058   4.193182   3.862920   0.000000
    10  H    4.837573   5.511312   2.001198   2.794664   0.000000
 Stoichiometry    C4H4ClF
 Framework group  CS[SG(C4H4ClF)]
 Deg. of freedom    17
 Full point group                 CS      NOp   2
 Largest Abelian subgroup         CS      NOp   2
 Largest concise Abelian subgroup C1      NOp   1
                         Standard orientation:                         
 ---------------------------------------------------------------------
 Center     Atomic      Atomic             Coordinates (Angstroms)
 Number     Number       Type             X           Y           Z
 ---------------------------------------------------------------------
      1          6           0       -0.347161    1.437393    0.000000
      2          6           0        0.000000    0.170229    0.000000
      3          6           0       -0.953957   -0.940892    0.000000
      4          1           0       -1.981988   -0.632584    0.000000
      5          6           0       -0.652389   -2.222943    0.000000
      6          1           0        0.359171   -2.576825    0.000000
      7          1           0       -1.431503   -2.959996    0.000000
      8          9           0       -1.613688    1.803460    0.000000
      9         17           0        1.703763   -0.175597    0.000000
     10          1           0        0.334577    2.260686    0.000000
 ---------------------------------------------------------------------
 Rotational constants (GHZ):      3.6545639      2.3496753      1.4301626
 Standard basis: CC-pVTZ (5D, 7F)
 There are   163 symmetry adapted basis functions of A'  symmetry.
 There are    77 symmetry adapted basis functions of A"  symmetry.
 Integral buffers will be    131072 words long.
 Raffenetti 1 integral format.
 Two-electron integral symmetry is turned on.
   240 basis functions,   422 primitive gaussians,   274 cartesian basis functions
    27 alpha electrons       27 beta electrons
       nuclear repulsion energy       267.4174209364 Hartrees.
 NAtoms=   10 NActive=   10 NUniq=   10 SFac= 7.50D-01 NAtFMM=   80 NAOKFM=F Big=F
 One-electron integrals computed using PRISM.
 NBasis=   240 RedAO= T  NBF=   163    77
 NBsUse=   240 1.00D-06 NBFU=   163    77
 Initial guess read from the read-write file.
 B after Tr=     0.000000    0.000000    0.000000
         Rot=    1.000000    0.000000    0.000000    0.000000 Ang=   0.00 deg.
 Initial guess orbital symmetries:
       Occupied  (A') (A') (A') (A') (A') (A') (A') (A') (A') (A")
                 (A') (A') (A') (A') (A') (A') (A') (A") (A') (A')
                 (A') (A') (A") (A') (A') (A") (A")
       Virtual   (A") (A') (A') (A') (A') (A") (A') (A') (A') (A')
                 (A') (A") (A') (A') (A") (A') (A') (A") (A') (A")
                 (A') (A") (A') (A') (A') (A") (A') (A') (A") (A')
                 (A') (A') (A") (A') (A') (A') (A") (A') (A") (A')
                 (A") (A') (A') (A') (A") (A') (A') (A") (A') (A")
                 (A') (A") (A') (A") (A') (A') (A') (A") (A') (A")
                 (A') (A') (A') (A') (A') (A") (A') (A") (A') (A')
                 (A') (A') (A') (A') (A') (A') (A") (A") (A') (A")
                 (A") (A') (A') (A") (A') (A") (A') (A') (A") (A')
                 (A") (A") (A") (A') (A') (A') (A") (A') (A') (A")
                 (A') (A') (A') (A") (A') (A') (A') (A') (A") (A")
                 (A') (A") (A") (A') (A') (A") (A") (A') (A') (A')
                 (A") (A') (A") (A') (A') (A") (A') (A") (A') (A')
                 (A') (A") (A") (A') (A") (A") (A') (A') (A') (A")
                 (A') (A') (A") (A') (A') (A') (A") (A') (A") (A')
                 (A") (A') (A') (A') (A") (A') (A") (A') (A") (A')
                 (A") (A') (A') (A") (A') (A') (A") (A') (A') (A")
                 (A') (A") (A') (A') (A') (A") (A') (A") (A') (A")
                 (A') (A") (A') (A') (A") (A') (A') (A') (A') (A')
                 (A') (A') (A') (A') (A') (A') (A") (A') (A") (A')
                 (A") (A') (A') (A") (A') (A") (A') (A') (A') (A')
                 (A') (A') (A')
 Requested convergence on RMS density matrix=1.00D-08 within 128 cycles.
 Requested convergence on MAX density matrix=1.00D-06.
 Requested convergence on             energy=1.00D-06.
 No special actions if energy rises.
 Keep R1 ints in memory in canonical form, NReq=720370894.
 SCF Done:  E(RHF) =  -712.797422306     A.U. after    9 cycles
             Convg  =    0.6430D-08             -V/T =  2.0001
 Calling FoFJK, ICntrl=      2127 FMM=F ISym2X=1 I1Cent= 0 IOpClX= 0 NMat=1 NMatS=1 NMatT=0.
 ***** Axes restored to original set *****
 -------------------------------------------------------------------
 Center     Atomic                   Forces (Hartrees/Bohr)
 Number     Number              X              Y              Z
 -------------------------------------------------------------------
      1        6          -0.000459367   -0.000087805    0.000000000
      2        6           0.000323424   -0.000402739    0.000000000
      3        6           0.000121621   -0.000003499    0.000000000
      4        1           0.000063874    0.000131045    0.000000000
      5        6          -0.000067660   -0.000011211    0.000000000
      6        1           0.000018055   -0.000013814    0.000000000
      7        1           0.000011911    0.000026219    0.000000000
      8        9           0.000081831    0.000029481    0.000000000
      9       17          -0.000149483    0.000249776    0.000000000
     10        1           0.000055794    0.000082548    0.000000000
 -------------------------------------------------------------------
 Cartesian Forces:  Max     0.000459367 RMS     0.000144898

 GradGradGradGradGradGradGradGradGradGradGradGradGradGradGradGradGradGrad
 Berny optimization.
 Using GEDIIS/GDIIS optimizer.
 Internal  Forces:  Max     0.000447483 RMS     0.000127013
 Search for a local minimum.
 Step number   4 out of a maximum of   43
 All quantities printed in internal units (Hartrees-Bohrs-Radians)
 Mixed Optimization -- En-DIIS/RFO-DIIS
 Swaping is turned off.
 Update second derivatives using D2CorX and points    1    2    3    4
 DE= -2.78D-05 DEPred=-2.60D-05 R= 1.07D+00
 SS=  1.41D+00  RLast= 1.32D-02 DXNew= 8.4853D-01 3.9487D-02
 Trust test= 1.07D+00 RLast= 1.32D-02 DXMaxT set to 5.05D-01
     Eigenvalues ---    0.00237   0.01432   0.01524   0.02681   0.02681
     Eigenvalues ---    0.02681   0.02681   0.15008   0.15915   0.16002
     Eigenvalues ---    0.16389   0.20312   0.21907   0.23258   0.25094
     Eigenvalues ---    0.29061   0.29709   0.37191   0.37228   0.37230
     Eigenvalues ---    0.37687   0.54038   0.55381   0.698691000.00000
     Eigenvalues --- 1000.000001000.000001000.000001000.000001000.00000
     Eigenvalues --- 1000.000001000.000001000.00000
 En-DIIS/RFO-DIIS IScMMF=        0 using points:     4    3
 RFO step:  Lambda=-1.11937410D-06.
 DIIS coeffs:      1.07110     -0.07110
 Iteration  1 RMS(Cart)=  0.00171347 RMS(Int)=  0.00000111
 Iteration  2 RMS(Cart)=  0.00000158 RMS(Int)=  0.00000000
 Iteration  3 RMS(Cart)=  0.00000000 RMS(Int)=  0.00000000
 ClnCor:  largest displacement from symmetrization is 5.28D-15 for atom     7.
 Variable       Old X    -DE/DX   Delta X   Delta X   Delta X     New X
                                  (DIIS)     (GDIIS)  (Total)
    R1        2.48283   0.00014  -0.00030   0.00042   0.00012   2.48295
    R2        2.49136   0.00001   0.00005  -0.00002   0.00002   2.49138
    R3        2.01995  -0.00006   0.00001  -0.00019  -0.00017   2.01978
    R4        2.76742   0.00015  -0.00016   0.00053   0.00037   2.76778
    R5        3.28530   0.00029   0.00040   0.00094   0.00133   3.28664
    R6        2.02818  -0.00009   0.00014  -0.00029  -0.00015   2.02803
    R7        2.48885  -0.00002  -0.00009  -0.00003  -0.00011   2.48873
    R8        2.02517  -0.00002   0.00007  -0.00008   0.00000   2.02517
    R9        2.02674   0.00001  -0.00001   0.00004   0.00003   2.02677
    A1        2.11957  -0.00009  -0.00034  -0.00024  -0.00057   2.11899
    A2        2.18257  -0.00003  -0.00023  -0.00013  -0.00036   2.18221
    A3        1.98105   0.00012   0.00056   0.00037   0.00094   1.98199
    A4        2.16475   0.00045   0.00008   0.00199   0.00207   2.16682
    A5        2.03846  -0.00021  -0.00008  -0.00095  -0.00103   2.03743
    A6        2.07998  -0.00024   0.00000  -0.00104  -0.00104   2.07894
    A7        1.98887   0.00020   0.00018   0.00097   0.00115   1.99002
    A8        2.20113  -0.00015  -0.00007  -0.00058  -0.00064   2.20049
    A9        2.09319  -0.00004  -0.00011  -0.00039  -0.00050   2.09268
   A10        2.13835   0.00000   0.00008   0.00001   0.00009   2.13844
   A11        2.09744   0.00003   0.00004   0.00020   0.00024   2.09767
   A12        2.04740  -0.00003  -0.00012  -0.00021  -0.00033   2.04707
    D1        0.00000   0.00000   0.00000   0.00000   0.00000   0.00000
    D2        3.14159   0.00000   0.00000   0.00000   0.00000   3.14159
    D3        3.14159   0.00000   0.00000   0.00000   0.00000   3.14159
    D4        0.00000   0.00000   0.00000   0.00000   0.00000   0.00000
    D5        0.00000   0.00000   0.00000   0.00000   0.00000   0.00000
    D6        3.14159   0.00000   0.00000   0.00000   0.00000   3.14159
    D7        3.14159   0.00000   0.00000   0.00000   0.00000   3.14159
    D8        0.00000   0.00000   0.00000   0.00000   0.00000   0.00000
    D9        0.00000   0.00000   0.00000   0.00000   0.00000   0.00000
   D10        3.14159   0.00000   0.00000   0.00000   0.00000   3.14159
   D11        3.14159   0.00000   0.00000   0.00000   0.00000   3.14159
   D12        0.00000   0.00000   0.00000   0.00000   0.00000   0.00000
         Item               Value     Threshold  Converged?
 Maximum Force            0.000447     0.000450     YES
 RMS     Force            0.000127     0.000300     YES
 Maximum Displacement     0.004889     0.001800     NO 
 RMS     Displacement     0.001713     0.001200     NO 
 Predicted change in Energy=-1.207778D-06
 GradGradGradGradGradGradGradGradGradGradGradGradGradGradGradGradGradGrad

                          Input orientation:                          
 ---------------------------------------------------------------------
 Center     Atomic      Atomic             Coordinates (Angstroms)
 Number     Number       Type             X           Y           Z
 ---------------------------------------------------------------------
      1          6           0       -2.078066   -1.675957    0.000000
      2          6           0       -1.401115   -0.549846    0.000000
      3          6           0        0.061337   -0.469679    0.000000
      4          1           0        0.551175   -1.424557    0.000000
      5          6           0        0.777476    0.635574    0.000000
      6          1           0        0.332456    1.610479    0.000000
      7          1           0        1.848758    0.584061    0.000000
      8          9           0       -1.467696   -2.844537    0.000000
      9         17           0       -2.329241    0.921019    0.000000
     10          1           0       -3.144260   -1.750875    0.000000
 ---------------------------------------------------------------------
                    Distance matrix (angstroms):
                    1          2          3          4          5
     1  C    0.000000
     2  C    1.313921   0.000000
     3  C    2.456044   1.464647   0.000000
     4  H    2.641233   2.139289   1.073188   0.000000
     5  C    3.673867   2.480218   1.316981   2.072522   0.000000
     6  H    4.075694   2.769887   2.097752   3.042906   1.071673
     7  H    4.530743   3.442009   2.074908   2.391290   1.072520
     8  F    1.318382   2.295656   2.824515   2.468235   4.141493
     9  Cl   2.609095   1.739213   2.765665   3.714636   3.119802
    10  H    1.068823   2.116843   3.452146   3.709815   4.590768
                    6          7          8          9         10
     6  H    0.000000
     7  H    1.831040   0.000000
     8  F    4.804967   4.770131   0.000000
     9  Cl   2.749542   4.191565   3.862858   0.000000
    10  H    4.835934   5.512002   2.001740   2.793435   0.000000
 Stoichiometry    C4H4ClF
 Framework group  CS[SG(C4H4ClF)]
 Deg. of freedom    17
 Full point group                 CS      NOp   2
 Largest Abelian subgroup         CS      NOp   2
 Largest concise Abelian subgroup C1      NOp   1
                         Standard orientation:                         
 ---------------------------------------------------------------------
 Center     Atomic      Atomic             Coordinates (Angstroms)
 Number     Number       Type             X           Y           Z
 ---------------------------------------------------------------------
      1          6           0       -0.336381    1.440481    0.000000
      2          6           0        0.000000    0.170348    0.000000
      3          6           0       -0.961223   -0.934750    0.000000
      4          1           0       -1.987532   -0.621027    0.000000
      5          6           0       -0.667106   -2.218470    0.000000
      6          1           0        0.342352   -2.578300    0.000000
      7          1           0       -1.450316   -2.951191    0.000000
      8          9           0       -1.599975    1.816591    0.000000
      9         17           0        1.701820   -0.188358    0.000000
     10          1           0        0.352576    2.257623    0.000000
 ---------------------------------------------------------------------
 Rotational constants (GHZ):      3.6559452      2.3486388      1.4299899
 Standard basis: CC-pVTZ (5D, 7F)
 There are   163 symmetry adapted basis functions of A'  symmetry.
 There are    77 symmetry adapted basis functions of A"  symmetry.
 Integral buffers will be    131072 words long.
 Raffenetti 1 integral format.
 Two-electron integral symmetry is turned on.
   240 basis functions,   422 primitive gaussians,   274 cartesian basis functions
    27 alpha electrons       27 beta electrons
       nuclear repulsion energy       267.3975432940 Hartrees.
 NAtoms=   10 NActive=   10 NUniq=   10 SFac= 7.50D-01 NAtFMM=   80 NAOKFM=F Big=F
 One-electron integrals computed using PRISM.
 NBasis=   240 RedAO= T  NBF=   163    77
 NBsUse=   240 1.00D-06 NBFU=   163    77
 Initial guess read from the read-write file.
 B after Tr=     0.000000    0.000000    0.000000
         Rot=    1.000000    0.000000    0.000000    0.000000 Ang=   0.00 deg.
 Initial guess orbital symmetries:
       Occupied  (A') (A') (A') (A') (A') (A') (A') (A') (A') (A")
                 (A') (A') (A') (A') (A') (A') (A') (A") (A') (A')
                 (A') (A') (A") (A') (A') (A") (A")
       Virtual   (A") (A') (A') (A') (A') (A") (A') (A') (A') (A')
                 (A') (A") (A') (A') (A") (A') (A') (A") (A') (A")
                 (A') (A") (A') (A') (A') (A") (A') (A') (A") (A')
                 (A') (A') (A") (A') (A') (A') (A") (A') (A") (A')
                 (A") (A') (A') (A') (A") (A') (A') (A") (A') (A")
                 (A') (A") (A') (A") (A') (A') (A') (A") (A') (A")
                 (A') (A') (A') (A') (A') (A") (A') (A") (A') (A')
                 (A') (A') (A') (A') (A') (A') (A") (A") (A') (A")
                 (A") (A') (A') (A") (A') (A") (A') (A') (A") (A')
                 (A") (A") (A') (A") (A') (A') (A") (A') (A') (A")
                 (A') (A') (A') (A") (A') (A') (A') (A') (A") (A")
                 (A') (A") (A") (A') (A') (A") (A") (A') (A') (A')
                 (A") (A') (A") (A') (A') (A") (A') (A") (A') (A')
                 (A') (A") (A") (A') (A") (A") (A') (A') (A') (A")
                 (A') (A') (A") (A') (A') (A') (A") (A') (A") (A')
                 (A") (A') (A') (A') (A") (A') (A") (A') (A") (A')
                 (A") (A') (A') (A") (A') (A') (A") (A') (A') (A")
                 (A') (A") (A') (A') (A') (A") (A') (A") (A') (A")
                 (A') (A") (A') (A') (A") (A') (A') (A') (A') (A')
                 (A') (A') (A') (A') (A') (A') (A") (A') (A") (A')
                 (A") (A') (A') (A") (A') (A") (A') (A') (A') (A')
                 (A') (A') (A')
 Requested convergence on RMS density matrix=1.00D-08 within 128 cycles.
 Requested convergence on MAX density matrix=1.00D-06.
 Requested convergence on             energy=1.00D-06.
 No special actions if energy rises.
 Keep R1 ints in memory in canonical form, NReq=720370894.
 SCF Done:  E(RHF) =  -712.797423558     A.U. after    9 cycles
             Convg  =    0.4684D-08             -V/T =  2.0001
 Calling FoFJK, ICntrl=      2127 FMM=F ISym2X=1 I1Cent= 0 IOpClX= 0 NMat=1 NMatS=1 NMatT=0.
 ***** Axes restored to original set *****
 -------------------------------------------------------------------
 Center     Atomic                   Forces (Hartrees/Bohr)
 Number     Number              X              Y              Z
 -------------------------------------------------------------------
      1        6          -0.000009813    0.000027685    0.000000000
      2        6           0.000096436   -0.000073628    0.000000000
      3        6          -0.000047270   -0.000071671    0.000000000
      4        1          -0.000018846    0.000010908    0.000000000
      5        6           0.000012435    0.000115508    0.000000000
      6        1           0.000014919   -0.000029994    0.000000000
      7        1           0.000002794   -0.000013626    0.000000000
      8        9          -0.000016534   -0.000003933    0.000000000
      9       17          -0.000047227    0.000050082    0.000000000
     10        1           0.000013106   -0.000011330    0.000000000
 -------------------------------------------------------------------
 Cartesian Forces:  Max     0.000115508 RMS     0.000038109

 GradGradGradGradGradGradGradGradGradGradGradGradGradGradGradGradGradGrad
 Berny optimization.
 Using GEDIIS/GDIIS optimizer.
 Internal  Forces:  Max     0.000076723 RMS     0.000022702
 Search for a local minimum.
 Step number   5 out of a maximum of   43
 All quantities printed in internal units (Hartrees-Bohrs-Radians)
 Mixed Optimization -- En-DIIS/RFO-DIIS
 Swaping is turned off.
 Update second derivatives using D2CorX and points    1    2    3    4    5
 DE= -1.25D-06 DEPred=-1.21D-06 R= 1.04D+00
 SS=  1.41D+00  RLast= 3.45D-03 DXNew= 8.4853D-01 1.0350D-02
 Trust test= 1.04D+00 RLast= 3.45D-03 DXMaxT set to 5.05D-01
     Eigenvalues ---    0.00237   0.01432   0.01523   0.02681   0.02681
     Eigenvalues ---    0.02681   0.02681   0.14885   0.15897   0.16181
     Eigenvalues ---    0.16593   0.19063   0.21627   0.23103   0.25220
     Eigenvalues ---    0.29657   0.29901   0.37200   0.37226   0.37311
     Eigenvalues ---    0.37767   0.54784   0.55547   0.690731000.00000
     Eigenvalues --- 1000.000001000.000001000.000001000.000001000.00000
     Eigenvalues --- 1000.000001000.000001000.00000
 En-DIIS/RFO-DIIS IScMMF=        0 using points:     5    4    3
 RFO step:  Lambda=-3.08622328D-08.
 DIIS coeffs:      1.03879     -0.03893      0.00014
 Iteration  1 RMS(Cart)=  0.00011102 RMS(Int)=  0.00000001
 Iteration  2 RMS(Cart)=  0.00000001 RMS(Int)=  0.00000000
 ClnCor:  largest displacement from symmetrization is 9.16D-16 for atom     7.
 Variable       Old X    -DE/DX   Delta X   Delta X   Delta X     New X
                                  (DIIS)     (GDIIS)  (Total)
    R1        2.48295   0.00000   0.00001  -0.00004  -0.00003   2.48292
    R2        2.49138   0.00000   0.00000  -0.00001  -0.00001   2.49137
    R3        2.01978  -0.00001  -0.00001  -0.00003  -0.00004   2.01974
    R4        2.76778  -0.00004   0.00001  -0.00017  -0.00015   2.76763
    R5        3.28664   0.00007   0.00005   0.00025   0.00030   3.28694
    R6        2.02803  -0.00002  -0.00001  -0.00004  -0.00004   2.02799
    R7        2.48873   0.00008   0.00000   0.00013   0.00013   2.48886
    R8        2.02517  -0.00003   0.00000  -0.00009  -0.00009   2.02508
    R9        2.02677   0.00000   0.00000   0.00001   0.00001   2.02678
    A1        2.11899   0.00002  -0.00002   0.00008   0.00006   2.11905
    A2        2.18221   0.00000  -0.00001   0.00003   0.00002   2.18223
    A3        1.98199  -0.00002   0.00004  -0.00012  -0.00008   1.98191
    A4        2.16682   0.00003   0.00008   0.00010   0.00018   2.16700
    A5        2.03743  -0.00003  -0.00004  -0.00015  -0.00019   2.03724
    A6        2.07894   0.00001  -0.00004   0.00005   0.00001   2.07895
    A7        1.99002  -0.00001   0.00004  -0.00011  -0.00006   1.98995
    A8        2.20049   0.00000  -0.00002   0.00005   0.00002   2.20051
    A9        2.09268   0.00001  -0.00002   0.00006   0.00004   2.09273
   A10        2.13844   0.00001   0.00000   0.00008   0.00009   2.13853
   A11        2.09767  -0.00002   0.00001  -0.00012  -0.00011   2.09756
   A12        2.04707   0.00001  -0.00001   0.00004   0.00003   2.04710
    D1        0.00000   0.00000   0.00000   0.00000   0.00000   0.00000
    D2        3.14159   0.00000   0.00000   0.00000   0.00000   3.14159
    D3        3.14159   0.00000   0.00000   0.00000   0.00000   3.14159
    D4        0.00000   0.00000   0.00000   0.00000   0.00000   0.00000
    D5        0.00000   0.00000   0.00000   0.00000   0.00000   0.00000
    D6        3.14159   0.00000   0.00000   0.00000   0.00000   3.14159
    D7        3.14159   0.00000   0.00000   0.00000   0.00000   3.14159
    D8        0.00000   0.00000   0.00000   0.00000   0.00000   0.00000
    D9        0.00000   0.00000   0.00000   0.00000   0.00000   0.00000
   D10        3.14159   0.00000   0.00000   0.00000   0.00000   3.14159
   D11        3.14159   0.00000   0.00000   0.00000   0.00000   3.14159
   D12        0.00000   0.00000   0.00000   0.00000   0.00000   0.00000
         Item               Value     Threshold  Converged?
 Maximum Force            0.000077     0.000450     YES
 RMS     Force            0.000023     0.000300     YES
 Maximum Displacement     0.000366     0.001800     YES
 RMS     Displacement     0.000111     0.001200     YES
 Predicted change in Energy=-2.965979D-08
 Optimization completed.
    -- Stationary point found.
                           ----------------------------
                           !   Optimized Parameters   !
                           ! (Angstroms and Degrees)  !
[...]
     1   6     0.00   0.00   0.00     0.00   0.00   0.00     0.05   0.07   0.00
     2   6     0.00   0.00   0.00     0.00   0.00   0.00     0.00  -0.01   0.00
     3   6    -0.08   0.03   0.00    -0.01   0.00   0.00     0.00   0.00   0.00
     4   1     0.91  -0.28   0.00     0.15  -0.05   0.00    -0.02   0.00   0.00
     5   6     0.02  -0.02   0.00    -0.10  -0.02   0.00     0.00   0.00   0.00
     6   1    -0.25   0.09   0.00     0.70  -0.25   0.00    -0.03   0.01   0.00
     7   1     0.06   0.06   0.00     0.47   0.44   0.00    -0.02  -0.02   0.00
     8   9     0.00   0.00   0.00     0.00   0.00   0.00     0.00   0.00   0.00
     9  17     0.00   0.00   0.00     0.00   0.00   0.00     0.00   0.00   0.00
    10   1    -0.01  -0.01   0.00    -0.03  -0.03   0.00    -0.64  -0.77   0.00

 -------------------
 - Thermochemistry -
 -------------------
 Temperature   298.150 Kelvin.  Pressure   1.00000 Atm.
 Atom     1 has atomic number  6 and mass  12.00000
 Atom     2 has atomic number  6 and mass  12.00000
 Atom     3 has atomic number  6 and mass  12.00000
 Atom     4 has atomic number  1 and mass   1.00783
 Atom     5 has atomic number  6 and mass  12.00000
 Atom     6 has atomic number  1 and mass   1.00783
 Atom     7 has atomic number  1 and mass   1.00783
 Atom     8 has atomic number  9 and mass  18.99840
 Atom     9 has atomic number 17 and mass  34.96885
 Atom    10 has atomic number  1 and mass   1.00783
 Molecular mass:   105.99856 amu.
 Principal axes and moments of inertia in atomic units:
                           1         2         3
     Eigenvalues --   493.64559 768.420081262.06567
           X           -0.68147   0.73184   0.00000
           Y            0.73184   0.68147   0.00000
           Z            0.00000   0.00000   1.00000
 This molecule is an asymmetric top.
 Rotational symmetry number  1.
 Warning -- assumption of classical behavior for rotation
           may cause significant error
 Rotational temperatures (Kelvin)      0.17546     0.11272     0.06863
 Rotational constants (GHZ):           3.65595     2.34864     1.42999
 Zero-point vibrational energy     193883.6 (Joules/Mol)
                                   46.33930 (Kcal/Mol)
 Warning -- explicit consideration of   7 degrees of freedom as
           vibrations may cause significant error
 Vibrational temperatures:    198.75   312.59   404.75   444.31   631.90
          (Kelvin)            681.58   823.81  1139.98  1158.63  1427.95
                             1514.26  1564.72  1619.23  1767.96  1866.38
                             2065.32  2119.12  2261.10  2605.60  2710.11
                             4752.16  4799.77  4876.99  4890.67
 
 Zero-point correction=                           0.073846 (Hartree/Particle)
 Thermal correction to Energy=                    0.079742
 Thermal correction to Enthalpy=                  0.080686
 Thermal correction to Gibbs Free Energy=         0.043563
 Sum of electronic and zero-point Energies=           -712.723577
 Sum of electronic and thermal Energies=              -712.717681
 Sum of electronic and thermal Enthalpies=            -712.716737
 Sum of electronic and thermal Free Energies=         -712.753860
 
                     E (Thermal)             CV                S
                      KCal/Mol        Cal/Mol-Kelvin    Cal/Mol-Kelvin
 Total                   50.039             20.018             78.132
 Electronic               0.000              0.000              0.000
 Translational            0.889              2.981             39.892
 Rotational               0.889              2.981             27.662
 Vibrational             48.261             14.056             10.579
 Vibration     1          0.614              1.915              2.829
 Vibration     2          0.646              1.815              1.982
 Vibration     3          0.681              1.708              1.526
 Vibration     4          0.698              1.657              1.369
 Vibration     5          0.799              1.385              0.829
 Vibration     6          0.831              1.308              0.727
 Vibration     7          0.929              1.091              0.499
                       Q            Log10(Q)             Ln(Q)
 Total Bot       0.917090D-20        -20.037588        -46.138252
 Total V=0       0.849800D+14         13.929317         32.073437
 Vib (Bot)       0.863202D-33        -33.063888        -76.132415
 Vib (Bot)    1  0.147267D+01          0.168105          0.387076
 Vib (Bot)    2  0.911470D+00         -0.040258         -0.092697
 Vib (Bot)    3  0.682966D+00         -0.165601         -0.381310
 Vib (Bot)    4  0.612748D+00         -0.212718         -0.489802
 Vib (Bot)    5  0.393863D+00         -0.404655         -0.931752
 Vib (Bot)    6  0.354942D+00         -0.449843         -1.035802
 Vib (Bot)    7  0.268111D+00         -0.571685         -1.316354
 Vib (V=0)       0.799866D+01          0.903017          2.079274
 Vib (V=0)    1  0.205523D+01          0.312861          0.720390
 Vib (V=0)    2  0.153960D+01          0.187409          0.431526
 Vib (V=0)    3  0.134643D+01          0.129184          0.297456
 Vib (V=0)    4  0.129086D+01          0.110879          0.255309
 Vib (V=0)    5  0.113650D+01          0.055568          0.127951
 Vib (V=0)    6  0.111317D+01          0.046563          0.107216
 Vib (V=0)    7  0.106735D+01          0.028306          0.065177
 Electronic      0.100000D+01          0.000000          0.000000
 Translational   0.428948D+08          7.632405         17.574262
 Rotational      0.247682D+06          5.393894         12.419901
 ***** Axes restored to original set *****
 -------------------------------------------------------------------
 Center     Atomic                   Forces (Hartrees/Bohr)
 Number     Number              X              Y              Z
 -------------------------------------------------------------------
      1        6          -0.000009811    0.000027699    0.000000000
      2        6           0.000096451   -0.000073628    0.000000000
      3        6          -0.000047248   -0.000071666    0.000000000
      4        1          -0.000018867    0.000010932    0.000000000
      5        6           0.000012412    0.000115455    0.000000000
      6        1           0.000014918   -0.000029979    0.000000000
      7        1           0.000002797   -0.000013618    0.000000000
      8        9          -0.000016519   -0.000003947    0.000000000
      9       17          -0.000047225    0.000050076    0.000000000
     10        1           0.000013092   -0.000011324    0.000000000
 -------------------------------------------------------------------
 Cartesian Forces:  Max     0.000115455 RMS     0.000038103

 GradGradGradGradGradGradGradGradGradGradGradGradGradGradGradGradGradGrad
 Berny optimization.
 Internal  Forces:  Max     0.000076687 RMS     0.000022698
 Search for a local minimum.
 Step number   1 out of a maximum of    2
 All quantities printed in internal units (Hartrees-Bohrs-Radians)
 Second derivative matrix not updated -- analytic derivatives used.
     Eigenvalues ---    0.00605   0.02637   0.02956   0.03411   0.03769
     Eigenvalues ---    0.05159   0.06539   0.12003   0.12805   0.13910
     Eigenvalues ---    0.15402   0.17658   0.20653   0.23886   0.27314
     Eigenvalues ---    0.31892   0.38691   0.39438   0.39501   0.40542
     Eigenvalues ---    0.41100   0.50101   0.71254   0.732761000.00000
     Eigenvalues --- 1000.000001000.000001000.000001000.000001000.00000
     Eigenvalues --- 1000.000001000.000001000.00000
 Angle between quadratic step and forces=  28.66 degrees.
 Linear search not attempted -- first point.
 Iteration  1 RMS(Cart)=  0.00011329 RMS(Int)=  0.00000001
 Iteration  2 RMS(Cart)=  0.00000001 RMS(Int)=  0.00000000
 ClnCor:  largest displacement from symmetrization is 1.26D-15 for atom    10.
 Variable       Old X    -DE/DX   Delta X   Delta X   Delta X     New X
                                 (Linear)    (Quad)   (Total)
    R1        2.48295   0.00000   0.00000  -0.00001  -0.00001   2.48294
    R2        2.49138   0.00000   0.00000   0.00000   0.00000   2.49138
    R3        2.01978  -0.00001   0.00000  -0.00003  -0.00003   2.01975
    R4        2.76778  -0.00004   0.00000  -0.00014  -0.00014   2.76764
    R5        3.28664   0.00007   0.00000   0.00032   0.00032   3.28695
    R6        2.02803  -0.00002   0.00000  -0.00004  -0.00004   2.02799
    R7        2.48873   0.00008   0.00000   0.00011   0.00011   2.48885
    R8        2.02517  -0.00003   0.00000  -0.00009  -0.00009   2.02508
    R9        2.02677   0.00000   0.00000   0.00001   0.00001   2.02678
    A1        2.11899   0.00002   0.00000   0.00006   0.00006   2.11905
    A2        2.18221   0.00000   0.00000   0.00004   0.00004   2.18225
    A3        1.98199  -0.00002   0.00000  -0.00010  -0.00010   1.98189
    A4        2.16682   0.00003   0.00000   0.00019   0.00019   2.16701
    A5        2.03743  -0.00003   0.00000  -0.00021  -0.00021   2.03722
    A6        2.07894   0.00001   0.00000   0.00002   0.00002   2.07896
    A7        1.99002  -0.00001   0.00000  -0.00008  -0.00008   1.98994
    A8        2.20049   0.00000   0.00000   0.00003   0.00003   2.20051
    A9        2.09268   0.00001   0.00000   0.00005   0.00005   2.09274
   A10        2.13844   0.00001   0.00000   0.00005   0.00005   2.13849
   A11        2.09767  -0.00002   0.00000  -0.00015  -0.00015   2.09752
   A12        2.04707   0.00001   0.00000   0.00010   0.00010   2.04717
    D1        0.00000   0.00000   0.00000   0.00000   0.00000   0.00000
    D2        3.14159   0.00000   0.00000   0.00000   0.00000   3.14159
    D3        3.14159   0.00000   0.00000   0.00000   0.00000   3.14159
    D4        0.00000   0.00000   0.00000   0.00000   0.00000   0.00000
    D5        0.00000   0.00000   0.00000   0.00000   0.00000   0.00000
    D6        3.14159   0.00000   0.00000   0.00000   0.00000   3.14159
    D7        3.14159   0.00000   0.00000   0.00000   0.00000   3.14159
    D8        0.00000   0.00000   0.00000   0.00000   0.00000   0.00000
    D9        0.00000   0.00000   0.00000   0.00000   0.00000   0.00000
   D10        3.14159   0.00000   0.00000   0.00000   0.00000   3.14159
   D11        3.14159   0.00000   0.00000   0.00000   0.00000   3.14159
   D12        0.00000   0.00000   0.00000   0.00000   0.00000   0.00000
         Item               Value     Threshold  Converged?
 Maximum Force            0.000077     0.000450     YES
 RMS     Force            0.000023     0.000300     YES
 Maximum Displacement     0.000371     0.001800     YES
 RMS     Displacement     0.000113     0.001200     YES
 Predicted change in Energy=-3.081709D-08
 Optimization completed.
    -- Stationary point found.
                           ----------------------------
                           !   Optimized Parameters   !
                           ! (Angstroms and Degrees)  !
 --------------------------                            --------------------------
 ! Name  Definition              Value          Derivative Info.                !
 --------------------------------------------------------------------------------
 ! R1    R(1,2)                  1.3139         -DE/DX =    0.0                 !
 ! R2    R(1,8)                  1.3184         -DE/DX =    0.0                 !
 ! R3    R(1,10)                 1.0688         -DE/DX =    0.0                 !
 ! R4    R(2,3)                  1.4646         -DE/DX =    0.0                 !
 ! R5    R(2,9)                  1.7392         -DE/DX =    0.0001              !
 ! R6    R(3,4)                  1.0732         -DE/DX =    0.0                 !
 ! R7    R(3,5)                  1.317          -DE/DX =    0.0001              !
 ! R8    R(5,6)                  1.0717         -DE/DX =    0.0                 !
 ! R9    R(5,7)                  1.0725         -DE/DX =    0.0                 !
 ! A1    A(2,1,8)              121.4093         -DE/DX =    0.0                 !
 ! A2    A(2,1,10)             125.0312         -DE/DX =    0.0                 !
 ! A3    A(8,1,10)             113.5595         -DE/DX =    0.0                 !
 ! A4    A(1,2,3)              124.1494         -DE/DX =    0.0                 !
 ! A5    A(1,2,9)              116.736          -DE/DX =    0.0                 !
 ! A6    A(3,2,9)              119.1145         -DE/DX =    0.0                 !
 ! A7    A(2,3,4)              114.0195         -DE/DX =    0.0                 !
 ! A8    A(2,3,5)              126.0785         -DE/DX =    0.0                 !
 ! A9    A(4,3,5)              119.9019         -DE/DX =    0.0                 !
 ! A10   A(3,5,6)              122.5236         -DE/DX =    0.0                 !
 ! A11   A(3,5,7)              120.1879         -DE/DX =    0.0                 !
 ! A12   A(6,5,7)              117.2885         -DE/DX =    0.0                 !
 ! D1    D(8,1,2,3)              0.0            -DE/DX =    0.0                 !
 ! D2    D(8,1,2,9)            180.0            -DE/DX =    0.0                 !
 ! D3    D(10,1,2,3)           180.0            -DE/DX =    0.0                 !
 ! D4    D(10,1,2,9)             0.0            -DE/DX =    0.0                 !
 ! D5    D(1,2,3,4)              0.0            -DE/DX =    0.0                 !
 ! D6    D(1,2,3,5)            180.0            -DE/DX =    0.0                 !
 ! D7    D(9,2,3,4)            180.0            -DE/DX =    0.0                 !
 ! D8    D(9,2,3,5)              0.0            -DE/DX =    0.0                 !
 ! D9    D(2,3,5,6)              0.0            -DE/DX =    0.0                 !
 ! D10   D(2,3,5,7)            180.0            -DE/DX =    0.0                 !
 ! D11   D(4,3,5,6)            180.0            -DE/DX =    0.0                 !
 ! D12   D(4,3,5,7)              0.0            -DE/DX =    0.0                 !
 --------------------------------------------------------------------------------
 GradGradGradGradGradGradGradGradGradGradGradGradGradGradGradGradGradGrad

 1\1\GINC-MALLOS66\Freq\RHF\CC-pVTZ\C4H4Cl1F1\MARLIN\26-Oct-2024\0\\#N 
 Geom=AllCheck Guess=TCheck SCRF=Check GenChk RHF/CC-pVTZ Freq\\Title C
 ard Required\\0,1\C,-2.0780661568,-1.6759573316,0.\C,-1.4011152633,-0.
 5498463091,0.\C,0.0613365981,-0.4696794028,0.\H,0.5511750544,-1.424556
 6604,0.\C,0.7774759942,0.6355737342,0.\H,0.3324556987,1.6104788306,0.\
 H,1.8487581557,0.5840608521,0.\F,-1.4676955312,-2.8445366847,0.\Cl,-2.
 3292405067,0.9210194879,0.\H,-3.144260283,-1.7508754963,0.\\Version=EM
 64L-G09RevA.01\State=1-A'\HF=-712.7974236\RMSD=1.295e-09\RMSF=3.810e-0
 5\ZeroPoint=0.0738464\Thermal=0.0797421\Dipole=0.1112628,-0.0322185,0.
 \DipoleDeriv=0.10469,-0.5043236,0.,0.2003956,1.4555644,0.,0.,0.,0.0137
 294,0.2450975,-0.4581962,0.,-0.3808738,0.4144322,0.,0.,0.,-0.044249,0.
 2117775,0.1288074,0.,0.0483064,-0.1011007,0.,0.,0.,-0.125312,-0.028034
 5,0.0443351,0.,0.0404247,-0.0021778,0.,0.,0.,0.1561318,-0.0373556,-0.1
 464624,0.,-0.0797085,0.0143225,0.,0.,0.,-0.2668247,0.0445219,0.0763443
 ,0.,0.0373278,-0.001207,0.,0.,0.,0.1556467,-0.0906336,-0.012918,0.,0.0
 378629,0.0672074,0.,0.,0.,0.142513,-0.1825213,0.5870052,0.,-0.0811554,
 -1.4469455,0.,0.,0.,-0.1181331,-0.2853615,0.2479514,0.,0.1758664,-0.43
 69293,0.,0.,0.,-0.0762416,0.0178195,0.0374567,0.,0.0015537,0.0368337,0
 .,0.,0.,0.1627396\Polar=67.9792224,14.0949621,75.0768158,0.,0.,32.2391
 961\HyperPolar=18.4632553,0.2240794,0.2333488,22.7241276,0.,0.,0.,5.17
 82776,-0.7942665,0.\PG=CS [SG(C4H4Cl1F1)]\NImag=0\\0.85445008,0.160572
 68,0.90145598,0.,0.,0.15299212,-0.28057592,-0.23681456,0.,0.66716913,-
 0.23927406,-0.47671564,0.,0.19256043,0.79266170,0.,0.,-0.07108487,0.,0
 .,0.13538163,-0.01856454,-0.02552289,0.,-0.26915191,-0.00190656,0.,0.7
 1478594,-0.04486721,0.00641747,0.,-0.00252495,-0.10849987,0.,0.1238663
 3,0.93289233,0.,0.,0.01098356,0.,0.,-0.07508446,0.,0.,0.15615404,-0.00
 239686,0.00310938,0.,-0.01304087,0.02995418,0.,-0.13315145,0.12475838,
 0.,0.13833257,0.00057014,-0.00085202,0.,-0.00043605,0.00380410,0.,0.12
 342768,-0.30380686,0.,-0.13071603,0.32487328,0.,0.,-0.00066783,0.,0.,0
 .00412551,0.,0.,-0.04860638,0.,0.,0.03128761,-0.00786726,0.01145889,0.
 ,-0.03114075,-0.04214591,0.,-0.27457093,-0.22475985,0.,0.01401103,0.01
 601183,0.,0.79278565,0.00786359,0.00327509,0.,-0.01527507,0.00305878,0
 .,-0.21658979,-0.49193858,0.,-0.02151775,-0.02285803,0.,0.11072172,0.8
 9589193,0.,0.,0.00142163,0.,0.,0.00693458,0.,0.,-0.06568482,0.,0.,0.00
 853581,0.,0.,0.14049089,0.00028426,-0.00019912,0.,0.00100544,0.0000057
 8,0.,0.01547348,-0.01865172,0.,-0.00193685,-0.00351595,0.,-0.12407636,
 0.12094156,0.,0.12115708,0.00037481,-0.00064716,0.,0.00215702,-0.00037
 321,0.,0.01612830,-0.02210173,0.,-0.00365027,-0.00265095,0.,0.11265197
 ,-0.31886303,0.,-0.12673642,0.33844700,0.,0.,0.00040783,0.,0.,-0.00876
 891,0.,0.,0.00846347,0.,0.,0.01324684,0.,0.,-0.04705002,0.,0.,0.029018
 70,-0.00105908,0.00064860,0.,0.00076618,-0.00259886,0.,-0.01426889,0.0
 0487613,0.,0.00132336,-0.00036248,0.,-0.37148957,0.01603125,0.,-0.0079
 6385,-0.00135364,0.,0.39240798,-0.00161421,0.00103051,0.,-0.00166308,-
 0.00607601,0.,-0.03401096,0.00543183,0.,0.00013350,0.00144980,0.,0.024
 02416,-0.06920682,0.,0.02869664,0.00377693,0.,-0.01641323,0.06330116,0
 .,0.,-0.00048179,0.,0.,0.01441467,0.,0.,0.00713827,0.,0.,-0.00950682,0
 .,0.,-0.04441947,0.,0.,0.00466285,0.,0.,0.02888038,-0.16345516,0.12739
 945,0.,0.01951367,-0.00732678,0.,-0.00645988,0.00341761,0.,0.00223601,
 -0.00328971,0.,0.00386501,-0.00183285,0.,-0.00037683,-0.00060575,0.,0.
 00022715,0.00026494,0.,0.15850651,0.12273530,-0.33233917,0.,0.02806572
 ,-0.05373914,0.,0.00815557,0.00046463,0.,-0.00350997,-0.00157646,0.,-0
 .00354877,-0.00011954,0.,0.00030291,0.00046193,0.,-0.00034477,-0.00010
 637,0.,-0.16386016,0.40985000,0.,0.,-0.04663145,0.,0.,0.01087725,0.,0.
 ,-0.00713816,0.,0.,0.00014930,0.,0.,-0.00001681,0.,0.,-0.00032404,0.,0
 .,0.00077163,0.,0.,0.02526420,0.00293712,-0.00276382,0.,-0.08582414,0.
 06635579,0.,-0.01494641,0.03544924,0.,-0.00561845,-0.00180050,0.,-0.00
 112850,-0.00045894,0.,-0.00359277,0.00112361,0.,0.00007990,0.00074888,
 0.,-0.00017776,0.00106080,0.,0.10666372,0.03257920,-0.03523073,0.,0.06
 322181,-0.16031595,0.,0.00619355,-0.01345273,0.,0.00142792,0.00149459,
 0.,-0.00272488,0.00023261,0.,-0.00086741,0.00194531,0.,-0.00024615,0.0
 0079165,0.,-0.00106034,-0.01152794,0.,-0.09881424,0.21626474,0.,0.,0.0
 0202355,0.,0.,-0.02665376,0.,0.,0.00337648,0.,0.,0.00172816,0.,0.,-0.0
 0020617,0.,0.,-0.00043060,0.,0.,0.00016055,0.,0.,0.00991300,0.,0.,0.01
 472737,-0.38375264,-0.03788860,0.,-0.00872083,0.00437598,0.,0.00085458
 ,-0.00156397,0.,0.00024151,0.00011107,0.,-0.00038832,0.00011627,0.,0.0
 0002639,-0.00008963,0.,-0.00002317,-0.00016663,0.,-0.01387873,0.010943
 36,0.,0.00160729,0.00029054,0.,0.40403391,-0.03894025,-0.06639432,0.,-
 0.02929129,0.00619525,0.,0.00025877,-0.00540649,0.,0.00001065,0.000122
 56,0.,-0.00168917,0.00052759,0.,0.00002373,0.00000491,0.,-0.00023685,-
 0.00039266,0.,0.04689360,-0.01136794,0.,-0.00090082,-0.00020154,0.,0.0
 2387162,0.07691265,0.,0.,-0.04896276,0.,0.,0.00985835,0.,0.,0.01039801
 ,0.,0.,-0.00029220,0.,0.,-0.00000563,0.,0.,0.00077388,0.,0.,-0.0016202
 7,0.,0.,0.00713507,0.,0.,-0.00463858,0.,0.,0.02735413\\0.00000981,-0.0
 0002770,0.,-0.00009645,0.00007363,0.,0.00004725,0.00007167,0.,0.000018
 87,-0.00001093,0.,-0.00001241,-0.00011545,0.,-0.00001492,0.00002998,0.
 ,-0.00000280,0.00001362,0.,0.00001652,0.00000395,0.,0.00004722,-0.0000
 5008,0.,-0.00001309,0.00001132,0.\\\@


 THE WHOLE OF SCIENCE IS NOTHING MORE THAN A REFINEMENT OF EVEYDAY THINKING.
                                                              -- A. EINSTEIN
 Job cpu time:  0 days  0 hours 16 minutes 56.0 seconds.
 File lengths (MBytes):  RWF=     53 Int=      0 D2E=      0 Chk=      5 Scr=      1
 Normal termination of Gaussian 09 at Sat Oct 26 20:18:51 2024.
