 Entering Gaussian System, Link 0=g09
 Initial command:
 /u/local/G09/g09/l1.exe /tmp/marlin/22988.mallos00.local/Gau-8636.inp -scrdir=/tmp/marlin/22988.mallos00.local/
 Entering Link 1 = /u/local/G09/g09/l1.exe PID=      8638.
  
 Copyright (c) 1988,1990,1992,1993,1995,1998,2003,2009, Gaussian, Inc.
                  All Rights Reserved.
  
 This is part of the Gaussian(R) 09 program.  It is based on
 the Gaussian(R) 03 system (copyright 2003, Gaussian, Inc.),
 the Gaussian(R) 98 system (copyright 1998, Gaussian, Inc.),
 the Gaussian(R) 94 system (copyright 1995, Gaussian, Inc.),
 the Gaussian 92(TM) system (copyright 1992, Gaussian, Inc.),
 the Gaussian 90(TM) system (copyright 1990, Gaussian, Inc.),
 the Gaussian 88(TM) system (copyright 1988, Gaussian, Inc.),
 the Gaussian 86(TM) system (copyright 1986, Carnegie Mellon
 University), and the Gaussian 82(TM) system (copyright 1983,
 Carnegie Mellon University). Gaussian is a federally registered
 trademark of Gaussian, Inc.
  
 This software contains proprietary and confidential information,
 including trade secrets, belonging to Gaussian, Inc.
  
 This software is provided under written license and may be
 used, copied, transmitted, or stored only in accord with that
 written license.
  
 The following legend is applicable only to US Government
 contracts under FAR:
  
                    RESTRICTED RIGHTS LEGEND
  
 Use, reproduction and disclosure by the US Government is
 subject to restrictions as set forth in subparagraphs (a)
 and (c) of the Commercial Computer Software - Restricted
 Rights clause in FAR 52.227-19.
  
 Gaussian, Inc.
 340 Quinnipiac St., Bldg. 40, Wallingford CT 06492
  
  
 ---------------------------------------------------------------
 Warning -- This program may not be used in any manner that
 competes with the business of Gaussian, Inc. or will provide
 assistance to any competitor of Gaussian, Inc.  The licensee
 of this program is prohibited from giving any competitor of
 Gaussian, Inc. access to this program.  By using this program,
 the user acknowledges that Gaussian, Inc. is engaged in the
 business of creating and licensing software in the field of
 computational chemistry and represents and warrants to the
 licensee that it is not a competitor of Gaussian, Inc. and that
 it will not use this program in any manner prohibited above.
 ---------------------------------------------------------------
  

 Cite this work as:
 Gaussian 09, Revision A.01,
 M. J. Frisch, G. W. Trucks, H. B. Schlegel, G. E. Scuseria, 
 M. A. Robb, J. R. Cheeseman, G. Scalmani, V. Barone, B. Mennucci, 
 G. A. Petersson, H. Nakatsuji, M. Caricato, X. Li, H. P. Hratchian, 
 A. F. Izmaylov, J. Bloino, G. Zheng, J. L. Sonnenberg, M. Hada, 
 M. Ehara, K. Toyota, R. Fukuda, J. Hasegawa, M. Ishida, T. Nakajima, 
 Y. Honda, O. Kitao, H. Nakai, T. Vreven, J. A. Montgomery, Jr., 
 J. E. Peralta, F. Ogliaro, M. Bearpark, J. J. Heyd, E. Brothers, 
 K. N. Kudin, V. N. Staroverov, R. Kobayashi, J. Normand, 
 K. Raghavachari, A. Rendell, J. C. Burant, S. S. Iyengar, J. Tomasi, 
 M. Cossi, N. Rega, J. M. Millam, M. Klene, J. E. Knox, J. B. Cross, 
 V. Bakken, C. Adamo, J. Jaramillo, R. Gomperts, R. E. Stratmann, 
 O. Yazyev, A. J. Austin, R. Cammi, C. Pomelli, J. W. Ochterski, 
 R. L. Martin, K. Morokuma, V. G. Zakrzewski, G. A. Voth, 
 P. Salvador, J. J. Dannenberg, S. Dapprich, A. D. Daniels, 
 O. Farkas, J. B. Foresman, J. V. Ortiz, J. Cioslowski, 
 and D. J. Fox, Gaussian, Inc., Wallingford CT, 2009.
 
 ******************************************
 Gaussian 09:  EM64L-G09RevA.01  8-May-2009
                26-Oct-2024 
 ******************************************
 %mem=206GB
 %nproc=20
 Will use up to   20 processors via shared memory.
 %chk=6-base2.chk
 ------------------------------------------------
 # opt freq=noraman hf/6-31G(d) geom=connectivity
 ------------------------------------------------
 1/18=20,19=15,38=1,57=2/1,3;
 2/9=110,12=2,17=6,18=5,40=1/2;
 3/5=1,6=6,7=1,11=9,16=1,25=1,30=1,71=1/1,2,3;
 4//1;
 5/5=2,38=5/2;
 6/7=2,8=2,9=2,10=2,28=1/1;
 7//1,2,3,16;
 1/18=20,19=15/3(2);
 2/9=110/2;
 99//99;
 2/9=110/2;
 3/5=1,6=6,7=1,11=9,16=1,25=1,30=1,71=1/1,2,3;
 4/5=5,16=3/1;
 5/5=2,38=5/2;
 7//1,2,3,16;
 1/18=20,19=15/3(-5);
 2/9=110/2;
 6/7=2,8=2,9=2,10=2,19=2,28=1/1;
 99/9=1/99;
 -------------------
 Title Card Required
 -------------------
 Symbolic Z-matrix:
 Charge =  0 Multiplicity = 1
 C                    -2.1124   -1.70543   0. 
 C                    -1.43713  -0.53045   0. 
 C                     0.10287  -0.53045   0. 
 H                     0.63603  -1.45815   0. 
 C                     0.78511   0.6405    0. 
 H                     0.25747   1.57135   0. 
 H                     1.8551    0.63414   0. 
 Cl                   -2.31411   0.9955    0. 
 F                    -3.4624   -1.70543   0. 
 H                    -1.57924  -2.63313   0. 
 

 GradGradGradGradGradGradGradGradGradGradGradGradGradGradGradGradGradGrad
 Berny optimization.
 Initialization pass.
                           ----------------------------
                           !    Initial Parameters    !
                           ! (Angstroms and Degrees)  !
 --------------------------                            --------------------------
 ! Name  Definition              Value          Derivative Info.                !
 --------------------------------------------------------------------------------
 ! R1    R(1,2)                  1.3552         estimate D2E/DX2                !
 ! R2    R(1,9)                  1.35           estimate D2E/DX2                !
 ! R3    R(1,10)                 1.07           estimate D2E/DX2                !
 ! R4    R(2,3)                  1.54           estimate D2E/DX2                !
 ! R5    R(2,8)                  1.76           estimate D2E/DX2                !
 ! R6    R(3,4)                  1.07           estimate D2E/DX2                !
 ! R7    R(3,5)                  1.3552         estimate D2E/DX2                !
 ! R8    R(5,6)                  1.07           estimate D2E/DX2                !
 ! R9    R(5,7)                  1.07           estimate D2E/DX2                !
 ! A1    A(2,1,9)              119.8865         estimate D2E/DX2                !
 ! A2    A(2,1,10)             120.2269         estimate D2E/DX2                !
 ! A3    A(9,1,10)             119.8865         estimate D2E/DX2                !
 ! A4    A(1,2,3)              119.8865         estimate D2E/DX2                !
 ! A5    A(1,2,8)              120.2269         estimate D2E/DX2                !
 ! A6    A(3,2,8)              119.8865         estimate D2E/DX2                !
 ! A7    A(2,3,4)              119.8865         estimate D2E/DX2                !
 ! A8    A(2,3,5)              120.2269         estimate D2E/DX2                !
 ! A9    A(4,3,5)              119.8865         estimate D2E/DX2                !
 ! A10   A(3,5,6)              120.2269         estimate D2E/DX2                !
 ! A11   A(3,5,7)              119.8865         estimate D2E/DX2                !
 ! A12   A(6,5,7)              119.8865         estimate D2E/DX2                !
 ! D1    D(9,1,2,3)            180.0            estimate D2E/DX2                !
 ! D2    D(9,1,2,8)              0.0            estimate D2E/DX2                !
 ! D3    D(10,1,2,3)             0.0            estimate D2E/DX2                !
 ! D4    D(10,1,2,8)           180.0            estimate D2E/DX2                !
 ! D5    D(1,2,3,4)              0.0            estimate D2E/DX2                !
 ! D6    D(1,2,3,5)            180.0            estimate D2E/DX2                !
 ! D7    D(8,2,3,4)            180.0            estimate D2E/DX2                !
 ! D8    D(8,2,3,5)              0.0            estimate D2E/DX2                !
 ! D9    D(2,3,5,6)              0.0            estimate D2E/DX2                !
 ! D10   D(2,3,5,7)            180.0            estimate D2E/DX2                !
 ! D11   D(4,3,5,6)            180.0            estimate D2E/DX2                !
 ! D12   D(4,3,5,7)              0.0            estimate D2E/DX2                !
 --------------------------------------------------------------------------------
 Trust Radius=3.00D-01 FncErr=1.00D-07 GrdErr=1.00D-07
 Number of steps in this run=  43 maximum allowed number of steps= 100.
 GradGradGradGradGradGradGradGradGradGradGradGradGradGradGradGradGradGrad

                          Input orientation:                          
 ---------------------------------------------------------------------
 Center     Atomic      Atomic             Coordinates (Angstroms)
 Number     Number       Type             X           Y           Z
 ---------------------------------------------------------------------
      1          6           0       -2.112403   -1.705426    0.000000
      2          6           0       -1.437129   -0.530449    0.000000
      3          6           0        0.102871   -0.530449    0.000000
      4          1           0        0.636035   -1.458154    0.000000
      5          6           0        0.785114    0.640495    0.000000
      6          1           0        0.257472    1.571352    0.000000
      7          1           0        1.855096    0.634138    0.000000
      8         17           0       -2.314109    0.995496    0.000000
      9          9           0       -3.462403   -1.705426    0.000000
     10          1           0       -1.579240   -2.633131    0.000000
 ---------------------------------------------------------------------
                    Distance matrix (angstroms):
                    1          2          3          4          5
     1  C    0.000000
     2  C    1.355200   0.000000
     3  C    2.507591   1.540000   0.000000
     4  H    2.759539   2.271265   1.070000   0.000000
     5  C    3.728131   2.511867   1.355200   2.103938   0.000000
     6  H    4.043956   2.699859   2.107479   3.053066   1.070000
     7  H    4.605932   3.492135   2.103938   2.421527   1.070000
     8  Cl   2.708443   1.760000   2.858373   3.837153   3.119488
     9  F    1.350000   2.341433   3.753898   4.105891   4.852294
    10  H    1.070000   2.107479   2.692725   2.507591   4.038168
                    6          7          8          9         10
     6  H    0.000000
     7  H    1.852234   0.000000
     8  Cl   2.635268   4.184835   0.000000
     9  F    4.957292   5.809420   2.934887   0.000000
    10  H    4.588157   4.740222   3.702292   2.099272   0.000000
 Stoichiometry    C4H4ClF
 Framework group  CS[SG(C4H4ClF)]
 Deg. of freedom    17
 Full point group                 CS      NOp   2
 Largest Abelian subgroup         CS      NOp   2
 Largest concise Abelian subgroup C1      NOp   1
                         Standard orientation:                         
 ---------------------------------------------------------------------
 Center     Atomic      Atomic             Coordinates (Angstroms)
 Number     Number       Type             X           Y           Z
 ---------------------------------------------------------------------
      1          6           0        1.463460   -0.532748    0.000000
      2          6           0        0.288483    0.142526    0.000000
      3          6           0        0.288483    1.682526    0.000000
      4          1           0        1.216188    2.215690    0.000000
      5          6           0       -0.882462    2.364770    0.000000
      6          1           0       -1.813318    1.837127    0.000000
      7          1           0       -0.876104    3.434751    0.000000
      8         17           0       -1.237462   -0.734453    0.000000
      9          9           0        1.463460   -1.882748    0.000000
     10          1           0        2.391165    0.000416    0.000000
 ---------------------------------------------------------------------
 Rotational constants (GHZ):      4.4300235      2.1166708      1.4323109
 Standard basis: 6-31G(d) (6D, 7F)
 There are    77 symmetry adapted basis functions of A'  symmetry.
 There are    25 symmetry adapted basis functions of A"  symmetry.
 Integral buffers will be    131072 words long.
 Raffenetti 1 integral format.
 Two-electron integral symmetry is turned on.
   102 basis functions,   208 primitive gaussians,   102 cartesian basis functions
    27 alpha electrons       27 beta electrons
       nuclear repulsion energy       264.6556380902 Hartrees.
 NAtoms=   10 NActive=   10 NUniq=   10 SFac= 7.50D-01 NAtFMM=   80 NAOKFM=F Big=F
 One-electron integrals computed using PRISM.
 NBasis=   102 RedAO= T  NBF=    77    25
 NBsUse=   102 1.00D-06 NBFU=    77    25
 Harris functional with IExCor=  205 diagonalized for initial guess.
 ExpMin= 1.43D-01 ExpMax= 2.52D+04 ExpMxC= 3.78D+03 IAcc=1 IRadAn=         1 AccDes= 0.00D+00
 HarFok:  IExCor=  205 AccDes= 0.00D+00 IRadAn=         1 IDoV= 1
 ScaDFX=  1.000000  1.000000  1.000000  1.000000
 FoFCou: FMM=F IPFlag=           0 FMFlag=      100000 FMFlg1=           0
         NFxFlg=           0 DoJE=T BraDBF=F KetDBF=T FulRan=T
         Omega=  0.000000  0.000000  1.000000  0.000000  0.000000 ICntrl=     500 IOpCl=  0
         NMat0=    1 NMatS0=    1 NMatT0=    0 NMatD0=    1 NMtDS0=    0 NMtDT0=    0
         I1Cent=           4 NGrid=           0.
 Petite list used in FoFCou.
 Initial guess orbital symmetries:
       Occupied  (A') (A') (A') (A') (A') (A') (A') (A') (A') (A")
                 (A') (A') (A') (A') (A') (A') (A') (A') (A') (A')
                 (A") (A') (A") (A') (A") (A') (A")
       Virtual   (A") (A') (A") (A') (A') (A') (A') (A') (A') (A')
                 (A') (A') (A') (A') (A") (A') (A') (A") (A") (A')
                 (A') (A') (A") (A") (A') (A') (A') (A') (A') (A")
                 (A') (A") (A') (A') (A') (A') (A') (A') (A") (A')
                 (A") (A') (A') (A") (A') (A") (A") (A') (A") (A')
                 (A') (A") (A') (A') (A') (A") (A') (A') (A') (A')
                 (A") (A') (A") (A") (A') (A') (A') (A') (A') (A')
                 (A') (A') (A') (A') (A')
 The electronic state of the initial guess is 1-A'.
 Requested convergence on RMS density matrix=1.00D-08 within 128 cycles.
 Requested convergence on MAX density matrix=1.00D-06.
 Requested convergence on             energy=1.00D-06.
 No special actions if energy rises.
 Keep R1 ints in memory in canonical form, NReq=14671843.
 SCF Done:  E(RHF) =  -712.651328084     A.U. after   13 cycles
             Convg  =    0.9378D-08             -V/T =  2.0014

 **********************************************************************

            Population analysis using the SCF density.

 **********************************************************************

 Orbital symmetries:
       Occupied  (A') (A') (A') (A') (A') (A') (A') (A') (A') (A")
                 (A') (A') (A') (A') (A') (A') (A') (A') (A") (A')
                 (A') (A') (A') (A") (A') (A") (A")
       Virtual   (A") (A') (A") (A') (A') (A') (A') (A') (A') (A')
                 (A') (A') (A') (A") (A') (A') (A") (A') (A") (A')
                 (A') (A") (A") (A') (A') (A') (A') (A') (A') (A")
                 (A') (A") (A') (A') (A') (A') (A') (A') (A') (A")
                 (A") (A') (A') (A") (A') (A") (A") (A') (A") (A')
                 (A") (A') (A') (A') (A') (A") (A') (A') (A') (A')
                 (A") (A') (A") (A") (A') (A') (A') (A') (A') (A')
                 (A') (A') (A') (A') (A')
 The electronic state is 1-A'.
 Alpha  occ. eigenvalues -- -104.83538 -26.32188 -11.34676 -11.32275 -11.27065
 Alpha  occ. eigenvalues --  -11.24426 -10.56800  -8.03742  -8.03397  -8.03395
 Alpha  occ. eigenvalues --   -1.62674  -1.16588  -1.05721  -1.01242  -0.84145
 Alpha  occ. eigenvalues --   -0.77994  -0.73161  -0.70080  -0.69175  -0.62750
 Alpha  occ. eigenvalues --   -0.59464  -0.56341  -0.53093  -0.51786  -0.45858
 Alpha  occ. eigenvalues --   -0.41794  -0.33313
 Alpha virt. eigenvalues --    0.11429   0.18809   0.22272   0.25053   0.27371
 Alpha virt. eigenvalues --    0.30140   0.31686   0.36275   0.44737   0.48071
 Alpha virt. eigenvalues --    0.52363   0.59104   0.62747   0.63409   0.66175
 Alpha virt. eigenvalues --    0.71713   0.74306   0.74662   0.78530   0.79489
 Alpha virt. eigenvalues --    0.83070   0.87628   0.89622   0.90640   0.99951
 Alpha virt. eigenvalues --    1.06110   1.11350   1.12544   1.14062   1.14435
 Alpha virt. eigenvalues --    1.14637   1.17392   1.17998   1.24980   1.26161
 Alpha virt. eigenvalues --    1.32291   1.35926   1.40404   1.49325   1.53002
 Alpha virt. eigenvalues --    1.57536   1.60735   1.62723   1.69411   1.72669
 Alpha virt. eigenvalues --    1.74570   1.87481   1.98023   2.00050   2.06839
 Alpha virt. eigenvalues --    2.13134   2.14856   2.23067   2.24349   2.30400
 Alpha virt. eigenvalues --    2.33379   2.36029   2.44750   2.56420   2.61243
 Alpha virt. eigenvalues --    2.61989   2.69014   2.70804   2.83399   3.01426
 Alpha virt. eigenvalues --    3.02731   3.21932   3.30234   3.43789   4.42077
 Alpha virt. eigenvalues --    4.52126   4.59262   4.71214   4.85453   4.90536
          Condensed to atoms (all electrons):
              1          2          3          4          5          6
     1  C    4.631388   0.587097  -0.047950   0.000794   0.000330   0.000183
     2  C    0.587097   5.251824   0.339417  -0.034959  -0.049702  -0.004860
     3  C   -0.047950   0.339417   4.956043   0.392041   0.636044  -0.039866
     4  H    0.000794  -0.034959   0.392041   0.456848  -0.029326   0.002536
     5  C    0.000330  -0.049702   0.636044  -0.029326   5.045440   0.398412
     6  H    0.000183  -0.004860  -0.039866   0.002536   0.398412   0.447756
     7  H   -0.000029   0.002834  -0.037180  -0.002328   0.393126  -0.021422
     8  Cl  -0.069020   0.222846  -0.052646   0.001045  -0.001375  -0.000859
     9  F    0.254652  -0.041335   0.001049   0.000016  -0.000021   0.000001
    10  H    0.399489  -0.070503   0.003571   0.000858   0.000063   0.000008
              7          8          9         10
     1  C   -0.000029  -0.069020   0.254652   0.399489
     2  C    0.002834   0.222846  -0.041335  -0.070503
     3  C   -0.037180  -0.052646   0.001049   0.003571
     4  H   -0.002328   0.001045   0.000016   0.000858
     5  C    0.393126  -0.001375  -0.000021   0.000063
     6  H   -0.021422  -0.000859   0.000001   0.000008
     7  H    0.470814   0.000297   0.000000  -0.000003
     8  Cl   0.000297  16.873278   0.005096   0.002328
     9  F    0.000000   0.005096   9.164251  -0.024418
    10  H   -0.000003   0.002328  -0.024418   0.469696
 Mulliken atomic charges:
              1
     1  C    0.243066
     2  C   -0.202660
     3  C   -0.150522
     4  H    0.212477
     5  C   -0.392991
     6  H    0.218112
     7  H    0.193890
     8  Cl   0.019009
     9  F   -0.359291
    10  H    0.218911
 Sum of Mulliken atomic charges =   0.00000
 Mulliken charges with hydrogens summed into heavy atoms:
              1
     1  C    0.461976
     2  C   -0.202660
     3  C    0.061955
     5  C    0.019011
     8  Cl   0.019009
     9  F   -0.359291
 Sum of Mulliken charges with hydrogens summed into heavy atoms =   0.00000
 Electronic spatial extent (au):  <R**2>=            763.8923
 Charge=              0.0000 electrons
 Dipole moment (field-independent basis, Debye):
    X=              1.3823    Y=              2.5847    Z=              0.0000  Tot=              2.9311
 Quadrupole moment (field-independent basis, Debye-Ang):
   XX=            -36.5216   YY=            -40.9954   ZZ=            -44.0636
   XY=              1.6862   XZ=              0.0000   YZ=              0.0000
 Traceless Quadrupole moment (field-independent basis, Debye-Ang):
   XX=              4.0052   YY=             -0.4685   ZZ=             -3.5367
   XY=              1.6862   XZ=              0.0000   YZ=              0.0000
 Octapole moment (field-independent basis, Debye-Ang**2):
  XXX=             12.2326  YYY=             -0.0012  ZZZ=              0.0000  XYY=             -3.4843
  XXY=             -0.7947  XXZ=              0.0000  XZZ=              2.6888  YZZ=             -9.8605
  YYZ=              0.0000  XYZ=              0.0000
 Hexadecapole moment (field-independent basis, Debye-Ang**3):
 XXXX=           -321.3673 YYYY=           -499.7324 ZZZZ=            -45.3589 XXXY=             57.4555
 XXXZ=              0.0000 YYYX=             54.6680 YYYZ=              0.0000 ZZZX=              0.0000
 ZZZY=              0.0000 XXYY=           -144.8587 XXZZ=            -69.7481 YYZZ=           -105.9299
 XXYZ=              0.0000 YYXZ=              0.0000 ZZXY=             17.0732
 N-N= 2.646556380902D+02 E-N=-2.218949250393D+03  KE= 7.116689237424D+02
 Symmetry A'   KE= 6.554486748306D+02
 Symmetry A"   KE= 5.622024891180D+01
 Calling FoFJK, ICntrl=      2127 FMM=F ISym2X=1 I1Cent= 0 IOpClX= 0 NMat=1 NMatS=1 NMatT=0.
 ***** Axes restored to original set *****
 -------------------------------------------------------------------
 Center     Atomic                   Forces (Hartrees/Bohr)
 Number     Number              X              Y              Z
 -------------------------------------------------------------------
      1        6           0.000543376    0.063559423    0.000000000
      2        6           0.011342571   -0.043552300    0.000000000
      3        6          -0.020364875    0.061195278    0.000000000
      4        1          -0.005468292   -0.006668659    0.000000000
      5        6          -0.021618001   -0.044721655    0.000000000
      6        1           0.004222526    0.003225662    0.000000000
      7        1           0.002933534    0.002756392    0.000000000
      8       17           0.009413831   -0.016022382    0.000000000
      9        9           0.030868042   -0.013252999    0.000000000
     10        1          -0.011872712   -0.006518761    0.000000000
 -------------------------------------------------------------------
 Cartesian Forces:  Max     0.063559423 RMS     0.021961017

 GradGradGradGradGradGradGradGradGradGradGradGradGradGradGradGradGradGrad
 Berny optimization.
 Internal  Forces:  Max     0.047700337 RMS     0.015939371
 Search for a local minimum.
 Step number   1 out of a maximum of   43
 All quantities printed in internal units (Hartrees-Bohrs-Radians)
 Mixed Optimization -- RFO/linear search
 Second derivative matrix not updated -- first step.
     Eigenvalues ---    0.00237   0.01459   0.01463   0.02681   0.02681
     Eigenvalues ---    0.02681   0.02681   0.16000   0.16000   0.16000
     Eigenvalues ---    0.16000   0.22000   0.22000   0.25000   0.25000
     Eigenvalues ---    0.28519   0.29539   0.37230   0.37230   0.37230
     Eigenvalues ---    0.37230   0.53930   0.53930   0.550211000.00000
     Eigenvalues --- 1000.000001000.000001000.000001000.000001000.00000
     Eigenvalues --- 1000.000001000.000001000.00000
 RFO step:  Lambda=-2.20793745D-02 EMin= 2.36824121D-03
 Linear search not attempted -- first point.
 Iteration  1 RMS(Cart)=  0.07040920 RMS(Int)=  0.00218958
 Iteration  2 RMS(Cart)=  0.00313387 RMS(Int)=  0.00000157
 Iteration  3 RMS(Cart)=  0.00000206 RMS(Int)=  0.00000000
 Iteration  4 RMS(Cart)=  0.00000000 RMS(Int)=  0.00000000
 ClnCor:  largest displacement from symmetrization is 2.22D-16 for atom     5.
 Variable       Old X    -DE/DX   Delta X   Delta X   Delta X     New X
                                 (Linear)    (Quad)   (Total)
    R1        2.56096  -0.04770   0.00000  -0.08497  -0.08497   2.47599
    R2        2.55113  -0.03087   0.00000  -0.05394  -0.05394   2.49719
    R3        2.02201  -0.00026   0.00000  -0.00067  -0.00067   2.02134
    R4        2.91018  -0.04030   0.00000  -0.13114  -0.13114   2.77904
    R5        3.32592  -0.01858   0.00000  -0.05853  -0.05853   3.26739
    R6        2.02201   0.00306   0.00000   0.00775   0.00775   2.02976
    R7        2.56096  -0.04075   0.00000  -0.07259  -0.07259   2.48836
    R8        2.02201   0.00072   0.00000   0.00184   0.00184   2.02384
    R9        2.02201   0.00292   0.00000   0.00740   0.00740   2.02940
    A1        2.09241   0.01341   0.00000   0.05541   0.05541   2.14782
    A2        2.09836   0.00698   0.00000   0.04749   0.04749   2.14585
    A3        2.09241  -0.02040   0.00000  -0.10290  -0.10290   1.98952
    A4        2.09241   0.00424   0.00000   0.01559   0.01559   2.10800
    A5        2.09836  -0.00182   0.00000  -0.00670  -0.00670   2.09165
    A6        2.09241  -0.00242   0.00000  -0.00888  -0.00888   2.08353
    A7        2.09241  -0.01853   0.00000  -0.08764  -0.08764   2.00477
    A8        2.09836   0.02075   0.00000   0.08574   0.08574   2.18409
    A9        2.09241  -0.00222   0.00000   0.00191   0.00191   2.09432
   A10        2.09836   0.00523   0.00000   0.02870   0.02870   2.12706
   A11        2.09241   0.00019   0.00000   0.00105   0.00105   2.09346
   A12        2.09241  -0.00542   0.00000  -0.02975  -0.02975   2.06266
    D1        3.14159   0.00000   0.00000   0.00000   0.00000   3.14159
    D2        0.00000   0.00000   0.00000   0.00000   0.00000   0.00000
    D3        0.00000   0.00000   0.00000   0.00000   0.00000   0.00000
    D4        3.14159   0.00000   0.00000   0.00000   0.00000   3.14159
    D5        0.00000   0.00000   0.00000   0.00000   0.00000   0.00000
    D6        3.14159   0.00000   0.00000   0.00000   0.00000   3.14159
    D7        3.14159   0.00000   0.00000   0.00000   0.00000   3.14159
    D8        0.00000   0.00000   0.00000   0.00000   0.00000   0.00000
    D9        0.00000   0.00000   0.00000   0.00000   0.00000   0.00000
   D10        3.14159   0.00000   0.00000   0.00000   0.00000   3.14159
   D11        3.14159   0.00000   0.00000   0.00000   0.00000   3.14159
   D12        0.00000   0.00000   0.00000   0.00000   0.00000   0.00000
         Item               Value     Threshold  Converged?
 Maximum Force            0.047700     0.000450     NO 
 RMS     Force            0.015939     0.000300     NO 
 Maximum Displacement     0.214084     0.001800     NO 
 RMS     Displacement     0.070868     0.001200     NO 
 Predicted change in Energy=-1.180327D-02
 GradGradGradGradGradGradGradGradGradGradGradGradGradGradGradGradGradGrad

                          Input orientation:                          
 ---------------------------------------------------------------------
 Center     Atomic      Atomic             Coordinates (Angstroms)
 Number     Number       Type             X           Y           Z
 ---------------------------------------------------------------------
      1          6           0       -2.064245   -1.665019    0.000000
      2          6           0       -1.428052   -0.519604    0.000000
      3          6           0        0.041881   -0.475190    0.000000
      4          1           0        0.522746   -1.435640    0.000000
      5          6           0        0.766911    0.624016    0.000000
      6          1           0        0.319050    1.596848    0.000000
      7          1           0        1.838865    0.559167    0.000000
      8         17           0       -2.321364    0.960776    0.000000
      9          9           0       -3.382464   -1.757478    0.000000
     10          1           0       -1.562025   -2.609432    0.000000
 ---------------------------------------------------------------------
                    Distance matrix (angstroms):
                    1          2          3          4          5
     1  C    0.000000
     2  C    1.310236   0.000000
     3  C    2.418980   1.470604   0.000000
     4  H    2.597141   2.155165   1.074102   0.000000
     5  C    3.640759   2.475021   1.316784   2.074078   0.000000
     6  H    4.039786   2.744400   2.090493   3.039321   1.070971
     7  H    4.492357   3.440420   2.073414   2.389858   1.073914
     8  Cl   2.638353   1.729026   2.765307   3.719109   3.106581
     9  F    1.321458   2.313452   3.656557   3.918450   4.784227
    10  H    1.069646   2.094118   2.669739   2.392501   3.984863
                    6          7          8          9         10
     6  H    0.000000
     7  H    1.840276   0.000000
     8  Cl   2.715948   4.179569   0.000000
     9  F    4.995269   5.712191   2.918019   0.000000
    10  H    4.607736   4.648234   3.650066   2.009932   0.000000
 Stoichiometry    C4H4ClF
 Framework group  CS[SG(C4H4ClF)]
 Deg. of freedom    17
 Full point group                 CS      NOp   2
 Largest Abelian subgroup         CS      NOp   2
 Largest concise Abelian subgroup C1      NOp   1
                         Standard orientation:                         
 ---------------------------------------------------------------------
 Center     Atomic      Atomic             Coordinates (Angstroms)
 Number     Number       Type             X           Y           Z
 ---------------------------------------------------------------------
      1          6           0       -1.102473    1.012192    0.000000
      2          6           0        0.000000    0.304188    0.000000
      3          6           0        1.315957    0.960643    0.000000
      4          1           0        1.285085    2.034302    0.000000
      5          6           0        2.474824    0.335384    0.000000
      6          1           0        2.540631   -0.733563    0.000000
      7          1           0        3.388477    0.899769    0.000000
      8         17           0       -0.086440   -1.422675    0.000000
      9          9           0       -2.307513    0.469855    0.000000
     10          1           0       -1.106944    2.081829    0.000000
 ---------------------------------------------------------------------
 Rotational constants (GHZ):      4.5799443      2.1907601      1.4819077
 Standard basis: 6-31G(d) (6D, 7F)
 There are    77 symmetry adapted basis functions of A'  symmetry.
 There are    25 symmetry adapted basis functions of A"  symmetry.
 Integral buffers will be    131072 words long.
 Raffenetti 1 integral format.
 Two-electron integral symmetry is turned on.
   102 basis functions,   208 primitive gaussians,   102 cartesian basis functions
    27 alpha electrons       27 beta electrons
       nuclear repulsion energy       269.8962013238 Hartrees.
 NAtoms=   10 NActive=   10 NUniq=   10 SFac= 7.50D-01 NAtFMM=   80 NAOKFM=F Big=F
 One-electron integrals computed using PRISM.
 NBasis=   102 RedAO= T  NBF=    77    25
 NBsUse=   102 1.00D-06 NBFU=    77    25
 Initial guess read from the read-write file.
 B after Tr=     0.000000    0.000000    0.000000
         Rot=    1.000000    0.000000    0.000000    0.000000 Ang=   0.00 deg.
 Initial guess orbital symmetries:
       Occupied  (A') (A') (A') (A') (A') (A') (A') (A') (A') (A")
                 (A') (A') (A') (A') (A') (A') (A') (A') (A") (A')
                 (A') (A') (A') (A") (A') (A") (A")
       Virtual   (A") (A') (A") (A') (A') (A') (A') (A') (A') (A')
                 (A') (A') (A') (A") (A') (A') (A") (A') (A") (A')
                 (A') (A") (A") (A') (A') (A') (A') (A') (A') (A")
                 (A') (A") (A') (A') (A') (A') (A') (A') (A') (A")
                 (A") (A') (A') (A") (A') (A") (A") (A') (A") (A')
                 (A") (A') (A') (A') (A') (A") (A') (A') (A') (A')
                 (A") (A') (A") (A") (A') (A') (A') (A') (A') (A')
                 (A') (A') (A') (A') (A')
 Harris functional with IExCor=  205 diagonalized for initial guess.
 ExpMin= 1.43D-01 ExpMax= 2.52D+04 ExpMxC= 3.78D+03 IAcc=1 IRadAn=         1 AccDes= 0.00D+00
 HarFok:  IExCor=  205 AccDes= 0.00D+00 IRadAn=         1 IDoV= 1
 ScaDFX=  1.000000  1.000000  1.000000  1.000000
 FoFCou: FMM=F IPFlag=           0 FMFlag=      100000 FMFlg1=           0
         NFxFlg=           0 DoJE=T BraDBF=F KetDBF=T FulRan=T
         Omega=  0.000000  0.000000  1.000000  0.000000  0.000000 ICntrl=     500 IOpCl=  0
         NMat0=    1 NMatS0=    1 NMatT0=    0 NMatD0=    1 NMtDS0=    0 NMtDT0=    0
         I1Cent=           4 NGrid=           0.
 Petite list used in FoFCou.
 Requested convergence on RMS density matrix=1.00D-08 within 128 cycles.
 Requested convergence on MAX density matrix=1.00D-06.
 Requested convergence on             energy=1.00D-06.
 No special actions if energy rises.
 Keep R1 ints in memory in canonical form, NReq=14671843.
 SCF Done:  E(RHF) =  -712.662846781     A.U. after   14 cycles
             Convg  =    0.5839D-08             -V/T =  2.0007
 Calling FoFJK, ICntrl=      2127 FMM=F ISym2X=1 I1Cent= 0 IOpClX= 0 NMat=1 NMatS=1 NMatT=0.
 ***** Axes restored to original set *****
 -------------------------------------------------------------------
 Center     Atomic                   Forces (Hartrees/Bohr)
 Number     Number              X              Y              Z
 -------------------------------------------------------------------
      1        6          -0.008402455   -0.004680677    0.000000000
      2        6           0.006648809    0.002288161    0.000000000
      3        6          -0.005147885    0.003282921    0.000000000
      4        1           0.000303069   -0.002112647    0.000000000
      5        6           0.004080599   -0.001008203    0.000000000
      6        1           0.001532057    0.002113485    0.000000000
      7        1           0.000289510    0.001943912    0.000000000
      8       17          -0.001399013    0.002257147    0.000000000
      9        9           0.003305578   -0.002012022    0.000000000
     10        1          -0.001210269   -0.002072077    0.000000000
 -------------------------------------------------------------------
 Cartesian Forces:  Max     0.008402455 RMS     0.002827929

 GradGradGradGradGradGradGradGradGradGradGradGradGradGradGradGradGradGrad
 Berny optimization.
 Using GEDIIS/GDIIS optimizer.
 Internal  Forces:  Max     0.010724689 RMS     0.002834797
 Search for a local minimum.
 Step number   2 out of a maximum of   43
 All quantities printed in internal units (Hartrees-Bohrs-Radians)
 Mixed Optimization -- RFO/linear search
 Update second derivatives using D2CorX and points    1    2
 DE= -1.15D-02 DEPred=-1.18D-02 R= 9.76D-01
 SS=  1.41D+00  RLast= 2.63D-01 DXNew= 5.0454D-01 7.8899D-01
 Trust test= 9.76D-01 RLast= 2.63D-01 DXMaxT set to 5.05D-01
 Use linear search instead of GDIIS.
     Eigenvalues ---    0.00237   0.01465   0.01516   0.02681   0.02681
     Eigenvalues ---    0.02681   0.02681   0.15384   0.16000   0.16000
     Eigenvalues ---    0.16107   0.20554   0.22023   0.24970   0.25000
     Eigenvalues ---    0.28902   0.30377   0.37178   0.37230   0.37230
     Eigenvalues ---    0.37253   0.53758   0.54325   0.622921000.00000
     Eigenvalues --- 1000.000001000.000001000.000001000.000001000.00000
     Eigenvalues --- 1000.000001000.000001000.00000
 RFO step:  Lambda=-7.91905422D-04 EMin= 2.36824121D-03
 Quartic linear search produced a step of  0.00324.
 Iteration  1 RMS(Cart)=  0.02580654 RMS(Int)=  0.00022640
 Iteration  2 RMS(Cart)=  0.00027949 RMS(Int)=  0.00000001
 Iteration  3 RMS(Cart)=  0.00000002 RMS(Int)=  0.00000000
 ClnCor:  largest displacement from symmetrization is 1.94D-11 for atom     9.
 Variable       Old X    -DE/DX   Delta X   Delta X   Delta X     New X
                                 (Linear)    (Quad)   (Total)
    R1        2.47599   0.01072  -0.00028   0.01755   0.01727   2.49326
    R2        2.49719  -0.00316  -0.00017  -0.00725  -0.00743   2.48977
    R3        2.02134   0.00126   0.00000   0.00337   0.00337   2.02471
    R4        2.77904   0.00118  -0.00043   0.00054   0.00012   2.77915
    R5        3.26739   0.00266  -0.00019   0.00738   0.00719   3.27457
    R6        2.02976   0.00202   0.00003   0.00566   0.00568   2.03544
    R7        2.48836   0.00580  -0.00024   0.00874   0.00850   2.49686
    R8        2.02384   0.00128   0.00001   0.00349   0.00350   2.02734
    R9        2.02940   0.00017   0.00002   0.00067   0.00069   2.03009
    A1        2.14782   0.00235   0.00018   0.01219   0.01237   2.16019
    A2        2.14585   0.00089   0.00015   0.00880   0.00895   2.15480
    A3        1.98952  -0.00324  -0.00033  -0.02099  -0.02133   1.96819
    A4        2.10800   0.00107   0.00005   0.00469   0.00474   2.11275
    A5        2.09165  -0.00058  -0.00002  -0.00252  -0.00255   2.08911
    A6        2.08353  -0.00048  -0.00003  -0.00217  -0.00220   2.08133
    A7        2.00477  -0.00382  -0.00028  -0.02088  -0.02117   1.98360
    A8        2.18409   0.00627   0.00028   0.03081   0.03109   2.21518
    A9        2.09432  -0.00245   0.00001  -0.00992  -0.00992   2.08440
   A10        2.12706   0.00175   0.00009   0.01166   0.01176   2.13882
   A11        2.09346   0.00111   0.00000   0.00698   0.00698   2.10044
   A12        2.06266  -0.00286  -0.00010  -0.01864  -0.01874   2.04393
    D1        3.14159   0.00000   0.00000   0.00000   0.00000   3.14159
    D2        0.00000   0.00000   0.00000   0.00000   0.00000   0.00000
    D3        0.00000   0.00000   0.00000   0.00000   0.00000   0.00000
    D4        3.14159   0.00000   0.00000   0.00000   0.00000   3.14159
    D5        0.00000   0.00000   0.00000   0.00000   0.00000   0.00000
    D6        3.14159   0.00000   0.00000   0.00000   0.00000   3.14159
    D7        3.14159   0.00000   0.00000   0.00000   0.00000   3.14159
    D8        0.00000   0.00000   0.00000   0.00000   0.00000   0.00000
    D9        0.00000   0.00000   0.00000   0.00000   0.00000   0.00000
   D10        3.14159   0.00000   0.00000   0.00000   0.00000   3.14159
   D11        3.14159   0.00000   0.00000   0.00000   0.00000   3.14159
   D12        0.00000   0.00000   0.00000   0.00000   0.00000   0.00000
         Item               Value     Threshold  Converged?
 Maximum Force            0.010725     0.000450     NO 
 RMS     Force            0.002835     0.000300     NO 
 Maximum Displacement     0.088520     0.001800     NO 
 RMS     Displacement     0.025780     0.001200     NO 
 Predicted change in Energy=-3.982176D-04
 GradGradGradGradGradGradGradGradGradGradGradGradGradGradGradGradGradGrad

                          Input orientation:                          
 ---------------------------------------------------------------------
 Center     Atomic      Atomic             Coordinates (Angstroms)
 Number     Number       Type             X           Y           Z
 ---------------------------------------------------------------------
      1          6           0       -2.071230   -1.673481    0.000000
      2          6           0       -1.437064   -0.516509    0.000000
      3          6           0        0.032392   -0.456896    0.000000
      4          1           0        0.504148   -1.425199    0.000000
      5          6           0        0.782622    0.630737    0.000000
      6          1           0        0.365893    1.619313    0.000000
      7          1           0        1.853947    0.551111    0.000000
      8         17           0       -2.344392    0.959789    0.000000
      9          9           0       -3.383660   -1.789267    0.000000
     10          1           0       -1.571352   -2.621153    0.000000
 ---------------------------------------------------------------------
                    Distance matrix (angstroms):
                    1          2          3          4          5
     1  C    0.000000
     2  C    1.319375   0.000000
     3  C    2.430084   1.470665   0.000000
     4  H    2.587318   2.143367   1.077109   0.000000
     5  C    3.667955   2.498636   1.321283   2.074710   0.000000
     6  H    4.096592   2.795066   2.102823   3.047650   1.072821
     7  H    4.511743   3.459850   2.081859   2.393273   1.074279
     8  Cl   2.647400   1.732830   2.766965   3.715151   3.144279
     9  F    1.317528   2.325758   3.666692   3.904817   4.818125
    10  H    1.071429   2.108923   2.693697   2.395413   4.014471
                    6          7          8          9         10
     6  H    0.000000
     7  H    1.831764   0.000000
     8  Cl   2.789376   4.218182   0.000000
     9  F    5.067304   5.736715   2.938943   0.000000
    10  H    4.662024   4.668611   3.663432   1.994115   0.000000
 Stoichiometry    C4H4ClF
 Framework group  CS[SG(C4H4ClF)]
 Deg. of freedom    17
 Full point group                 CS      NOp   2
 Largest Abelian subgroup         CS      NOp   2
 Largest concise Abelian subgroup C1      NOp   1
                         Standard orientation:                         
 ---------------------------------------------------------------------
 Center     Atomic      Atomic             Coordinates (Angstroms)
 Number     Number       Type             X           Y           Z
 ---------------------------------------------------------------------
      1          6           0       -1.110944    1.009868    0.000000
      2          6           0        0.000000    0.298141    0.000000
      3          6           0        1.318398    0.949818    0.000000
      4          1           0        1.268584    2.025774    0.000000
      5          6           0        2.497999    0.354560    0.000000
      6          1           0        2.605826   -0.712829    0.000000
      7          1           0        3.400222    0.937714    0.000000
      8         17           0       -0.089140   -1.432395    0.000000
      9          9           0       -2.318421    0.482727    0.000000
     10          1           0       -1.126189    2.081188    0.000000
 ---------------------------------------------------------------------
 Rotational constants (GHZ):      4.5382426      2.1619993      1.4643766
 Standard basis: 6-31G(d) (6D, 7F)
 There are    77 symmetry adapted basis functions of A'  symmetry.
 There are    25 symmetry adapted basis functions of A"  symmetry.
 Integral buffers will be    131072 words long.
 Raffenetti 1 integral format.
 Two-electron integral symmetry is turned on.
   102 basis functions,   208 primitive gaussians,   102 cartesian basis functions
    27 alpha electrons       27 beta electrons
       nuclear repulsion energy       268.7794002519 Hartrees.
 NAtoms=   10 NActive=   10 NUniq=   10 SFac= 7.50D-01 NAtFMM=   80 NAOKFM=F Big=F
 One-electron integrals computed using PRISM.
 NBasis=   102 RedAO= T  NBF=    77    25
 NBsUse=   102 1.00D-06 NBFU=    77    25
 Initial guess read from the read-write file.
 B after Tr=     0.000000    0.000000    0.000000
         Rot=    1.000000    0.000000    0.000000    0.000000 Ang=   0.00 deg.
 Initial guess orbital symmetries:
       Occupied  (A') (A') (A') (A') (A') (A') (A') (A') (A') (A")
                 (A') (A') (A') (A') (A') (A') (A') (A') (A") (A')
                 (A') (A') (A") (A') (A') (A") (A")
       Virtual   (A") (A') (A") (A') (A') (A') (A') (A') (A') (A')
                 (A') (A') (A") (A') (A') (A') (A") (A') (A") (A')
                 (A') (A") (A") (A') (A') (A') (A') (A') (A") (A')
                 (A') (A") (A') (A') (A') (A') (A') (A') (A') (A")
                 (A") (A') (A') (A") (A') (A") (A") (A') (A") (A')
                 (A") (A') (A') (A') (A') (A") (A') (A') (A') (A")
                 (A') (A') (A") (A") (A') (A') (A') (A') (A') (A')
                 (A') (A') (A') (A') (A')
 Harris functional with IExCor=  205 diagonalized for initial guess.
 ExpMin= 1.43D-01 ExpMax= 2.52D+04 ExpMxC= 3.78D+03 IAcc=1 IRadAn=         1 AccDes= 0.00D+00
 HarFok:  IExCor=  205 AccDes= 0.00D+00 IRadAn=         1 IDoV= 1
 ScaDFX=  1.000000  1.000000  1.000000  1.000000
 FoFCou: FMM=F IPFlag=           0 FMFlag=      100000 FMFlg1=           0
         NFxFlg=           0 DoJE=T BraDBF=F KetDBF=T FulRan=T
         Omega=  0.000000  0.000000  1.000000  0.000000  0.000000 ICntrl=     500 IOpCl=  0
         NMat0=    1 NMatS0=    1 NMatT0=    0 NMatD0=    1 NMtDS0=    0 NMtDT0=    0
         I1Cent=           4 NGrid=           0.
 Petite list used in FoFCou.
 Requested convergence on RMS density matrix=1.00D-08 within 128 cycles.
 Requested convergence on MAX density matrix=1.00D-06.
 Requested convergence on             energy=1.00D-06.
 No special actions if energy rises.
 Keep R1 ints in memory in canonical form, NReq=14671843.
 SCF Done:  E(RHF) =  -712.663145153     A.U. after   11 cycles
             Convg  =    0.5777D-08             -V/T =  2.0008
 Calling FoFJK, ICntrl=      2127 FMM=F ISym2X=1 I1Cent= 0 IOpClX= 0 NMat=1 NMatS=1 NMatT=0.
 ***** Axes restored to original set *****
 -------------------------------------------------------------------
 Center     Atomic                   Forces (Hartrees/Bohr)
 Number     Number              X              Y              Z
 -------------------------------------------------------------------
      1        6           0.001069089    0.000829116    0.000000000
      2        6          -0.000140127   -0.002591539    0.000000000
      3        6          -0.000136015    0.000730932    0.000000000
      4        1           0.000486704   -0.000034521    0.000000000
      5        6          -0.001523669   -0.001858457    0.000000000
      6        1          -0.000129635    0.000417341    0.000000000
      7        1          -0.000178239    0.000007362    0.000000000
      8       17          -0.000304945    0.000779831    0.000000000
      9        9          -0.000014652    0.001303533    0.000000000
     10        1           0.000871489    0.000416402    0.000000000
 -------------------------------------------------------------------
 Cartesian Forces:  Max     0.002591539 RMS     0.000789274

 GradGradGradGradGradGradGradGradGradGradGradGradGradGradGradGradGradGrad
 Berny optimization.
 Using GEDIIS/GDIIS optimizer.
 Internal  Forces:  Max     0.003160994 RMS     0.000902941
 Search for a local minimum.
 Step number   3 out of a maximum of   43
 All quantities printed in internal units (Hartrees-Bohrs-Radians)
 Mixed Optimization -- En-DIIS/RFO-DIIS
 Update second derivatives using D2CorX and points    1    2    3
 DE= -2.98D-04 DEPred=-3.98D-04 R= 7.49D-01
 SS=  1.41D+00  RLast= 5.75D-02 DXNew= 8.4853D-01 1.7251D-01
 Trust test= 7.49D-01 RLast= 5.75D-02 DXMaxT set to 5.05D-01
 Use linear search instead of GDIIS.
     Eigenvalues ---    0.00237   0.01464   0.01521   0.02681   0.02681
     Eigenvalues ---    0.02681   0.02681   0.15226   0.16000   0.16014
     Eigenvalues ---    0.16639   0.20986   0.23057   0.24959   0.25085
     Eigenvalues ---    0.29174   0.30369   0.36897   0.37230   0.37236
     Eigenvalues ---    0.37256   0.53456   0.54216   0.698801000.00000
     Eigenvalues --- 1000.000001000.000001000.000001000.000001000.00000
     Eigenvalues --- 1000.000001000.000001000.00000
 RFO step:  Lambda=-2.34263040D-05 EMin= 2.36824121D-03
 Quartic linear search produced a step of -0.19559.
 Iteration  1 RMS(Cart)=  0.00556720 RMS(Int)=  0.00001217
 Iteration  2 RMS(Cart)=  0.00001398 RMS(Int)=  0.00000000
 Iteration  3 RMS(Cart)=  0.00000000 RMS(Int)=  0.00000000
 ClnCor:  largest displacement from symmetrization is 2.20D-12 for atom    10.
 Variable       Old X    -DE/DX   Delta X   Delta X   Delta X     New X
                                 (Linear)    (Quad)   (Total)
    R1        2.49326  -0.00316  -0.00338  -0.00040  -0.00377   2.48948
    R2        2.48977  -0.00010   0.00145  -0.00158  -0.00013   2.48964
    R3        2.02471   0.00004  -0.00066   0.00085   0.00019   2.02490
    R4        2.77915  -0.00151  -0.00002  -0.00361  -0.00364   2.77552
    R5        3.27457   0.00082  -0.00141   0.00417   0.00276   3.27734
    R6        2.03544   0.00024  -0.00111   0.00178   0.00067   2.03611
    R7        2.49686  -0.00222  -0.00166  -0.00104  -0.00271   2.49416
    R8        2.02734   0.00043  -0.00068   0.00173   0.00105   2.02838
    R9        2.03009  -0.00018  -0.00014  -0.00027  -0.00040   2.02969
    A1        2.16019  -0.00151  -0.00242  -0.00302  -0.00544   2.15475
    A2        2.15480  -0.00022  -0.00175  -0.00042  -0.00217   2.15263
    A3        1.96819   0.00173   0.00417   0.00344   0.00761   1.97580
    A4        2.11275   0.00025  -0.00093   0.00179   0.00086   2.11361
    A5        2.08911   0.00012   0.00050  -0.00015   0.00034   2.08945
    A6        2.08133  -0.00037   0.00043  -0.00164  -0.00121   2.08013
    A7        1.98360   0.00112   0.00414   0.00038   0.00452   1.98812
    A8        2.21518  -0.00138  -0.00608   0.00152  -0.00456   2.21062
    A9        2.08440   0.00026   0.00194  -0.00190   0.00004   2.08444
   A10        2.13882   0.00006  -0.00230   0.00279   0.00049   2.13931
   A11        2.10044  -0.00004  -0.00137   0.00137   0.00000   2.10045
   A12        2.04393  -0.00002   0.00366  -0.00416  -0.00050   2.04343
    D1        3.14159   0.00000   0.00000   0.00000   0.00000   3.14159
    D2        0.00000   0.00000   0.00000   0.00000   0.00000   0.00000
    D3        0.00000   0.00000   0.00000   0.00000   0.00000   0.00000
    D4        3.14159   0.00000   0.00000   0.00000   0.00000   3.14159
    D5        0.00000   0.00000   0.00000   0.00000   0.00000   0.00000
    D6        3.14159   0.00000   0.00000   0.00000   0.00000   3.14159
    D7        3.14159   0.00000   0.00000   0.00000   0.00000   3.14159
    D8        0.00000   0.00000   0.00000   0.00000   0.00000   0.00000
    D9        0.00000   0.00000   0.00000   0.00000   0.00000   0.00000
   D10        3.14159   0.00000   0.00000   0.00000   0.00000   3.14159
   D11        3.14159   0.00000   0.00000   0.00000   0.00000   3.14159
   D12        0.00000   0.00000   0.00000   0.00000   0.00000   0.00000
         Item               Value     Threshold  Converged?
 Maximum Force            0.003161     0.000450     NO 
 RMS     Force            0.000903     0.000300     NO 
 Maximum Displacement     0.018039     0.001800     NO 
 RMS     Displacement     0.005570     0.001200     NO 
 Predicted change in Energy=-2.985795D-05
 GradGradGradGradGradGradGradGradGradGradGradGradGradGradGradGradGradGrad

                          Input orientation:                          
 ---------------------------------------------------------------------
 Center     Atomic      Atomic             Coordinates (Angstroms)
 Number     Number       Type             X           Y           Z
 ---------------------------------------------------------------------
      1          6           0       -2.069659   -1.673184    0.000000
      2          6           0       -1.434606   -0.518978    0.000000
      3          6           0        0.032972   -0.460523    0.000000
      4          1           0        0.508544   -1.427354    0.000000
      5          6           0        0.778232    0.628786    0.000000
      6          1           0        0.358000    1.616479    0.000000
      7          1           0        1.849641    0.553272    0.000000
      8         17           0       -2.339825    0.960328    0.000000
      9          9           0       -3.382804   -1.779721    0.000000
     10          1           0       -1.569191   -2.620660    0.000000
 ---------------------------------------------------------------------
                    Distance matrix (angstroms):
                    1          2          3          4          5
     1  C    0.000000
     2  C    1.317378   0.000000
     3  C    2.427263   1.468741   0.000000
     4  H    2.589896   2.144989   1.077465   0.000000
     5  C    3.661905   2.492792   1.319851   2.073751   0.000000
     6  H    4.088449   2.788120   2.102281   3.047554   1.073375
     7  H    4.507552   3.454852   2.080401   2.391950   1.074067
     8  Cl   2.647334   1.734291   2.765679   3.716750   3.135633
     9  F    1.317459   2.320549   3.661667   3.907268   4.807819
    10  H    1.071531   2.105987   2.689445   2.396029   4.008652
                    6          7          8          9         10
     6  H    0.000000
     7  H    1.831776   0.000000
     8  Cl   2.776472   4.209195   0.000000
     9  F    5.052504   5.728991   2.931838   0.000000
    10  H    4.654827   4.665003   3.662970   1.999092   0.000000
 Stoichiometry    C4H4ClF
 Framework group  CS[SG(C4H4ClF)]
 Deg. of freedom    17
 Full point group                 CS      NOp   2
 Largest Abelian subgroup         CS      NOp   2
 Largest concise Abelian subgroup C1      NOp   1
                         Standard orientation:                         
 ---------------------------------------------------------------------
 Center     Atomic      Atomic             Coordinates (Angstroms)
 Number     Number       Type             X           Y           Z
 ---------------------------------------------------------------------
      1          6           0       -1.108626    1.013161    0.000000
      2          6           0        0.000000    0.301519    0.000000
      3          6           0        1.317815    0.950028    0.000000
      4          1           0        1.274741    2.026632    0.000000
      5          6           0        2.492359    0.347986    0.000000
      6          1           0        2.594024   -0.720563    0.000000
      7          1           0        3.398070    0.925315    0.000000
      8         17           0       -0.090168   -1.430427    0.000000
      9          9           0       -2.313632    0.480564    0.000000
     10          1           0       -1.120586    2.084625    0.000000
 ---------------------------------------------------------------------
 Rotational constants (GHZ):      4.5456433      2.1703539      1.4689784
 Standard basis: 6-31G(d) (6D, 7F)
 There are    77 symmetry adapted basis functions of A'  symmetry.
 There are    25 symmetry adapted basis functions of A"  symmetry.
 Integral buffers will be    131072 words long.
 Raffenetti 1 integral format.
 Two-electron integral symmetry is turned on.
   102 basis functions,   208 primitive gaussians,   102 cartesian basis functions
    27 alpha electrons       27 beta electrons
       nuclear repulsion energy       269.0444038625 Hartrees.
 NAtoms=   10 NActive=   10 NUniq=   10 SFac= 7.50D-01 NAtFMM=   80 NAOKFM=F Big=F
 One-electron integrals computed using PRISM.
 NBasis=   102 RedAO= T  NBF=    77    25
 NBsUse=   102 1.00D-06 NBFU=    77    25
 Initial guess read from the read-write file.
 B after Tr=     0.000000    0.000000    0.000000
         Rot=    1.000000    0.000000    0.000000    0.000000 Ang=   0.00 deg.
 Initial guess orbital symmetries:
       Occupied  (A') (A') (A') (A') (A') (A') (A') (A') (A') (A")
                 (A') (A') (A') (A') (A') (A') (A') (A') (A") (A')
                 (A') (A') (A") (A') (A') (A") (A")
       Virtual   (A") (A') (A") (A') (A') (A') (A') (A') (A') (A')
                 (A') (A') (A') (A") (A') (A') (A") (A') (A") (A')
                 (A') (A") (A") (A') (A') (A') (A') (A') (A") (A')
                 (A') (A") (A') (A') (A') (A') (A') (A') (A') (A")
                 (A") (A') (A') (A") (A') (A") (A") (A') (A") (A')
                 (A") (A') (A') (A') (A") (A') (A') (A') (A') (A")
                 (A') (A') (A") (A") (A') (A') (A') (A') (A') (A')
                 (A') (A') (A') (A') (A')
 Requested convergence on RMS density matrix=1.00D-08 within 128 cycles.
 Requested convergence on MAX density matrix=1.00D-06.
 Requested convergence on             energy=1.00D-06.
 No special actions if energy rises.
 Keep R1 ints in memory in canonical form, NReq=14671843.
 SCF Done:  E(RHF) =  -712.663175705     A.U. after   10 cycles
             Convg  =    0.4193D-08             -V/T =  2.0007
 Calling FoFJK, ICntrl=      2127 FMM=F ISym2X=1 I1Cent= 0 IOpClX= 0 NMat=1 NMatS=1 NMatT=0.
 ***** Axes restored to original set *****
 -------------------------------------------------------------------
 Center     Atomic                   Forces (Hartrees/Bohr)
 Number     Number              X              Y              Z
 -------------------------------------------------------------------
      1        6          -0.000242970    0.000118811    0.000000000
      2        6           0.000129847   -0.000406665    0.000000000
      3        6           0.000085636    0.000007322    0.000000000
      4        1           0.000077174    0.000101370    0.000000000
      5        6          -0.000081044   -0.000019758    0.000000000
      6        1           0.000080401   -0.000041797    0.000000000
      7        1           0.000041628    0.000062598    0.000000000
      8       17          -0.000082595    0.000096958    0.000000000
      9        9          -0.000049775   -0.000039179    0.000000000
     10        1           0.000041699    0.000120340    0.000000000
 -------------------------------------------------------------------
 Cartesian Forces:  Max     0.000406665 RMS     0.000105875

 GradGradGradGradGradGradGradGradGradGradGradGradGradGradGradGradGradGrad
 Berny optimization.
 Using GEDIIS/GDIIS optimizer.
 Internal  Forces:  Max     0.000319568 RMS     0.000097933
 Search for a local minimum.
 Step number   4 out of a maximum of   43
 All quantities printed in internal units (Hartrees-Bohrs-Radians)
 Mixed Optimization -- En-DIIS/RFO-DIIS
 Swaping is turned off.
 Update second derivatives using D2CorX and points    1    2    3    4
 DE= -3.06D-05 DEPred=-2.99D-05 R= 1.02D+00
 SS=  1.41D+00  RLast= 1.34D-02 DXNew= 8.4853D-01 4.0303D-02
 Trust test= 1.02D+00 RLast= 1.34D-02 DXMaxT set to 5.05D-01
     Eigenvalues ---    0.00237   0.01466   0.01518   0.02681   0.02681
     Eigenvalues ---    0.02681   0.02681   0.15065   0.15854   0.16003
     Eigenvalues ---    0.16095   0.21133   0.23161   0.24182   0.25144
     Eigenvalues ---    0.29520   0.31120   0.37113   0.37228   0.37231
     Eigenvalues ---    0.37473   0.53621   0.54250   0.699791000.00000
     Eigenvalues --- 1000.000001000.000001000.000001000.000001000.00000
     Eigenvalues --- 1000.000001000.000001000.00000
 En-DIIS/RFO-DIIS IScMMF=        0 using points:     4    3
 RFO step:  Lambda=-6.46734003D-07.
 DIIS coeffs:      1.01141     -0.01141
 Iteration  1 RMS(Cart)=  0.00096071 RMS(Int)=  0.00000038
 Iteration  2 RMS(Cart)=  0.00000050 RMS(Int)=  0.00000000
 ClnCor:  largest displacement from symmetrization is 2.74D-13 for atom     6.
 Variable       Old X    -DE/DX   Delta X   Delta X   Delta X     New X
                                  (DIIS)     (GDIIS)  (Total)
    R1        2.48948  -0.00005  -0.00004  -0.00017  -0.00021   2.48927
    R2        2.48964   0.00005   0.00000   0.00007   0.00007   2.48971
    R3        2.02490  -0.00009   0.00000  -0.00023  -0.00023   2.02467
    R4        2.77552   0.00021  -0.00004   0.00064   0.00059   2.77611
    R5        3.27734   0.00013   0.00003   0.00046   0.00049   3.27783
    R6        2.03611  -0.00006   0.00001  -0.00014  -0.00013   2.03598
    R7        2.49416   0.00002  -0.00003  -0.00001  -0.00004   2.49412
    R8        2.02838  -0.00007   0.00001  -0.00017  -0.00016   2.02823
    R9        2.02969   0.00004   0.00000   0.00010   0.00009   2.02979
    A1        2.15475   0.00012  -0.00006   0.00050   0.00044   2.15519
    A2        2.15263  -0.00015  -0.00002  -0.00088  -0.00090   2.15172
    A3        1.97580   0.00003   0.00009   0.00038   0.00046   1.97627
    A4        2.11361   0.00032   0.00001   0.00132   0.00133   2.11494
    A5        2.08945  -0.00019   0.00000  -0.00078  -0.00077   2.08868
    A6        2.08013  -0.00013  -0.00001  -0.00054  -0.00055   2.07957
    A7        1.98812   0.00013   0.00005   0.00083   0.00088   1.98900
    A8        2.21062  -0.00003  -0.00005  -0.00016  -0.00021   2.21041
    A9        2.08444  -0.00010   0.00000  -0.00066  -0.00066   2.08378
   A10        2.13931   0.00003   0.00001   0.00024   0.00025   2.13956
   A11        2.10045   0.00005   0.00000   0.00032   0.00032   2.10077
   A12        2.04343  -0.00008  -0.00001  -0.00056  -0.00057   2.04286
    D1        3.14159   0.00000   0.00000   0.00000   0.00000   3.14159
    D2        0.00000   0.00000   0.00000   0.00000   0.00000   0.00000
    D3        0.00000   0.00000   0.00000   0.00000   0.00000   0.00000
    D4        3.14159   0.00000   0.00000   0.00000   0.00000   3.14159
    D5        0.00000   0.00000   0.00000   0.00000   0.00000   0.00000
    D6        3.14159   0.00000   0.00000   0.00000   0.00000   3.14159
    D7        3.14159   0.00000   0.00000   0.00000   0.00000   3.14159
    D8        0.00000   0.00000   0.00000   0.00000   0.00000   0.00000
    D9        0.00000   0.00000   0.00000   0.00000   0.00000   0.00000
   D10        3.14159   0.00000   0.00000   0.00000   0.00000   3.14159
   D11        3.14159   0.00000   0.00000   0.00000   0.00000   3.14159
   D12        0.00000   0.00000   0.00000   0.00000   0.00000   0.00000
         Item               Value     Threshold  Converged?
 Maximum Force            0.000320     0.000450     YES
 RMS     Force            0.000098     0.000300     YES
 Maximum Displacement     0.003233     0.001800     NO 
 RMS     Displacement     0.000961     0.001200     YES
 Predicted change in Energy=-6.774929D-07
 GradGradGradGradGradGradGradGradGradGradGradGradGradGradGradGradGradGrad

                          Input orientation:                          
 ---------------------------------------------------------------------
 Center     Atomic      Atomic             Coordinates (Angstroms)
 Number     Number       Type             X           Y           Z
 ---------------------------------------------------------------------
      1          6           0       -2.070475   -1.673307    0.000000
      2          6           0       -1.434336   -0.519827    0.000000
      3          6           0        0.033535   -0.460860    0.000000
      4          1           0        0.510254   -1.427050    0.000000
      5          6           0        0.778179    0.628845    0.000000
      6          1           0        0.357679    1.616333    0.000000
      7          1           0        1.849703    0.554265    0.000000
      8         17           0       -2.339376    0.959894    0.000000
      9          9           0       -3.383715   -1.779130    0.000000
     10          1           0       -1.570143   -2.620718    0.000000
 ---------------------------------------------------------------------
                    Distance matrix (angstroms):
                    1          2          3          4          5
     1  C    0.000000
     2  C    1.317266   0.000000
     3  C    2.428351   1.469056   0.000000
     4  H    2.592452   2.145807   1.077397   0.000000
     5  C    3.662613   2.492924   1.319830   2.073279   0.000000
     6  H    4.088724   2.788279   2.102332   3.047205   1.073291
     7  H    4.508866   3.455226   2.080611   2.391596   1.074116
     8  Cl   2.646896   1.734552   2.765728   3.717243   3.135082
     9  F    1.317497   2.320759   3.662709   3.909854   4.808295
    10  H    1.071410   2.105276   2.690125   2.398520   4.009273
                    6          7          8          9         10
     6  H    0.000000
     7  H    1.831427   0.000000
     8  Cl   2.775791   4.208672   0.000000
     9  F    5.052445   5.730043   2.931364   0.000000
    10  H    4.655008   4.666461   3.662309   1.999329   0.000000
 Stoichiometry    C4H4ClF
 Framework group  CS[SG(C4H4ClF)]
 Deg. of freedom    17
 Full point group                 CS      NOp   2
 Largest Abelian subgroup         CS      NOp   2
 Largest concise Abelian subgroup C1      NOp   1
                         Standard orientation:                         
 ---------------------------------------------------------------------
 Center     Atomic      Atomic             Coordinates (Angstroms)
 Number     Number       Type             X           Y           Z
 ---------------------------------------------------------------------
      1          6           0       -1.109025    1.013070    0.000000
      2          6           0        0.000000    0.302259    0.000000
      3          6           0        1.318508    0.950072    0.000000
      4          1           0        1.277064    2.026671    0.000000
      5          6           0        2.492522    0.347044    0.000000
      6          1           0        2.593540   -0.721483    0.000000
      7          1           0        3.398948    0.923340    0.000000
      8         17           0       -0.090320   -1.429940    0.000000
      9          9           0       -2.313931    0.480152    0.000000
     10          1           0       -1.120761    2.084416    0.000000
 ---------------------------------------------------------------------
 Rotational constants (GHZ):      4.5482121      2.1696174      1.4689090
 Standard basis: 6-31G(d) (6D, 7F)
 There are    77 symmetry adapted basis functions of A'  symmetry.
 There are    25 symmetry adapted basis functions of A"  symmetry.
 Integral buffers will be    131072 words long.
 Raffenetti 1 integral format.
 Two-electron integral symmetry is turned on.
   102 basis functions,   208 primitive gaussians,   102 cartesian basis functions
    27 alpha electrons       27 beta electrons
       nuclear repulsion energy       269.0379152057 Hartrees.
 NAtoms=   10 NActive=   10 NUniq=   10 SFac= 7.50D-01 NAtFMM=   80 NAOKFM=F Big=F
 One-electron integrals computed using PRISM.
 NBasis=   102 RedAO= T  NBF=    77    25
 NBsUse=   102 1.00D-06 NBFU=    77    25
 Initial guess read from the read-write file.
 B after Tr=     0.000000    0.000000    0.000000
         Rot=    1.000000    0.000000    0.000000    0.000000 Ang=   0.00 deg.
 Initial guess orbital symmetries:
       Occupied  (A') (A') (A') (A') (A') (A') (A') (A') (A') (A")
                 (A') (A') (A') (A') (A') (A') (A') (A') (A") (A')
                 (A') (A') (A") (A') (A') (A") (A")
       Virtual   (A") (A') (A") (A') (A') (A') (A') (A') (A') (A')
                 (A') (A') (A') (A") (A') (A') (A") (A') (A") (A')
                 (A') (A") (A") (A') (A') (A') (A') (A') (A") (A')
                 (A') (A") (A') (A') (A') (A') (A') (A') (A') (A")
                 (A") (A') (A') (A") (A') (A") (A") (A') (A") (A')
                 (A") (A') (A') (A') (A") (A') (A') (A') (A') (A")
                 (A') (A') (A") (A") (A') (A') (A') (A') (A') (A')
                 (A') (A') (A') (A') (A')
 Requested convergence on RMS density matrix=1.00D-08 within 128 cycles.
 Requested convergence on MAX density matrix=1.00D-06.
 Requested convergence on             energy=1.00D-06.
 No special actions if energy rises.
 Keep R1 ints in memory in canonical form, NReq=14671843.
 SCF Done:  E(RHF) =  -712.663176400     A.U. after    8 cycles
             Convg  =    0.4524D-08             -V/T =  2.0007
 Calling FoFJK, ICntrl=      2127 FMM=F ISym2X=1 I1Cent= 0 IOpClX= 0 NMat=1 NMatS=1 NMatT=0.
 ***** Axes restored to original set *****
 -------------------------------------------------------------------
 Center     Atomic                   Forces (Hartrees/Bohr)
 Number     Number              X              Y              Z
 -------------------------------------------------------------------
      1        6          -0.000111620    0.000003444    0.000000000
      2        6           0.000152286   -0.000052180    0.000000000
      3        6          -0.000066619   -0.000037603    0.000000000
      4        1          -0.000008994    0.000000545    0.000000000
      5        6          -0.000017268    0.000044158    0.000000000
      6        1           0.000018419    0.000004583    0.000000000
      7        1           0.000003755    0.000001451    0.000000000
      8       17          -0.000036244    0.000075464    0.000000000
      9        9           0.000062317   -0.000013572    0.000000000
     10        1           0.000003965   -0.000026290    0.000000000
 -------------------------------------------------------------------
 Cartesian Forces:  Max     0.000152286 RMS     0.000044244

 GradGradGradGradGradGradGradGradGradGradGradGradGradGradGradGradGradGrad
 Berny optimization.
 Using GEDIIS/GDIIS optimizer.
 Internal  Forces:  Max     0.000083288 RMS     0.000027461
 Search for a local minimum.
 Step number   5 out of a maximum of   43
 All quantities printed in internal units (Hartrees-Bohrs-Radians)
 Mixed Optimization -- En-DIIS/RFO-DIIS
 Swaping is turned off.
 Update second derivatives using D2CorX and points    1    2    3    4    5
 DE= -6.95D-07 DEPred=-6.77D-07 R= 1.03D+00
 Trust test= 1.03D+00 RLast= 2.53D-03 DXMaxT set to 5.05D-01
     Eigenvalues ---    0.00237   0.01465   0.01517   0.02681   0.02681
     Eigenvalues ---    0.02681   0.02681   0.13857   0.15903   0.16073
     Eigenvalues ---    0.16524   0.20674   0.21438   0.23591   0.25127
     Eigenvalues ---    0.29467   0.33957   0.37116   0.37229   0.37292
     Eigenvalues ---    0.38529   0.53797   0.54936   0.707421000.00000
     Eigenvalues --- 1000.000001000.000001000.000001000.000001000.00000
     Eigenvalues --- 1000.000001000.000001000.00000
 En-DIIS/RFO-DIIS IScMMF=        0 using points:     5    4    3
 RFO step:  Lambda=-4.45439876D-08.
 DIIS coeffs:      1.02557     -0.02425     -0.00132
 Iteration  1 RMS(Cart)=  0.00014329 RMS(Int)=  0.00000001
 Iteration  2 RMS(Cart)=  0.00000001 RMS(Int)=  0.00000000
 ClnCor:  largest displacement from symmetrization is 1.21D-13 for atom     7.
 Variable       Old X    -DE/DX   Delta X   Delta X   Delta X     New X
                                  (DIIS)     (GDIIS)  (Total)
    R1        2.48927   0.00005  -0.00001   0.00008   0.00007   2.48934
    R2        2.48971  -0.00006   0.00000  -0.00013  -0.00013   2.48958
    R3        2.02467   0.00003  -0.00001   0.00006   0.00006   2.02473
    R4        2.77611  -0.00007   0.00001  -0.00026  -0.00025   2.77586
    R5        3.27783   0.00008   0.00002   0.00032   0.00034   3.27817
    R6        2.03598   0.00000   0.00000  -0.00001  -0.00001   2.03597
    R7        2.49412   0.00004   0.00000   0.00007   0.00006   2.49418
    R8        2.02823   0.00000   0.00000  -0.00001  -0.00001   2.02822
    R9        2.02979   0.00000   0.00000   0.00001   0.00002   2.02980
    A1        2.15519   0.00002   0.00000   0.00013   0.00013   2.15533
    A2        2.15172   0.00000  -0.00003  -0.00003  -0.00006   2.15166
    A3        1.97627  -0.00002   0.00002  -0.00010  -0.00007   1.97619
    A4        2.11494   0.00003   0.00004   0.00018   0.00021   2.11515
    A5        2.08868   0.00000  -0.00002  -0.00003  -0.00005   2.08862
    A6        2.07957  -0.00003  -0.00002  -0.00015  -0.00016   2.07941
    A7        1.98900   0.00000   0.00003   0.00000   0.00003   1.98903
    A8        2.21041  -0.00001  -0.00001  -0.00004  -0.00005   2.21035
    A9        2.08378   0.00001  -0.00002   0.00004   0.00002   2.08380
   A10        2.13956   0.00002   0.00001   0.00018   0.00019   2.13975
   A11        2.10077  -0.00001   0.00001  -0.00005  -0.00004   2.10073
   A12        2.04286  -0.00001  -0.00002  -0.00014  -0.00015   2.04270
    D1        3.14159   0.00000   0.00000   0.00000   0.00000   3.14159
    D2        0.00000   0.00000   0.00000   0.00000   0.00000   0.00000
    D3        0.00000   0.00000   0.00000   0.00000   0.00000   0.00000
    D4        3.14159   0.00000   0.00000   0.00000   0.00000   3.14159
    D5        0.00000   0.00000   0.00000   0.00000   0.00000   0.00000
    D6        3.14159   0.00000   0.00000   0.00000   0.00000   3.14159
    D7        3.14159   0.00000   0.00000   0.00000   0.00000   3.14159
    D8        0.00000   0.00000   0.00000   0.00000   0.00000   0.00000
    D9        0.00000   0.00000   0.00000   0.00000   0.00000   0.00000
   D10        3.14159   0.00000   0.00000   0.00000   0.00000   3.14159
   D11        3.14159   0.00000   0.00000   0.00000   0.00000   3.14159
   D12        0.00000   0.00000   0.00000   0.00000   0.00000   0.00000
         Item               Value     Threshold  Converged?
 Maximum Force            0.000083     0.000450     YES
 RMS     Force            0.000027     0.000300     YES
 Maximum Displacement     0.000394     0.001800     YES
 RMS     Displacement     0.000143     0.001200     YES
 Predicted change in Energy=-4.272547D-08
 Optimization completed.
    -- Stationary point found.
                           ----------------------------
                           !   Optimized Parameters   !
                           ! (Angstroms and Degrees)  !
 --------------------------                            --------------------------
 ! Name  Definition              Value          Derivative Info.                !
 --------------------------------------------------------------------------------
 ! R1    R(1,2)                  1.3173         -DE/DX =    0.0001              !
 ! R2    R(1,9)                  1.3175         -DE/DX =   -0.0001              !
 ! R3    R(1,10)                 1.0714         -DE/DX =    0.0                 !
 ! R4    R(2,3)                  1.4691         -DE/DX =   -0.0001              !
 ! R5    R(2,8)                  1.7346         -DE/DX =    0.0001              !
 ! R6    R(3,4)                  1.0774         -DE/DX =    0.0                 !
 ! R7    R(3,5)                  1.3198         -DE/DX =    0.0                 !
 ! R8    R(5,6)                  1.0733         -DE/DX =    0.0                 !
 ! R9    R(5,7)                  1.0741         -DE/DX =    0.0                 !
 ! A1    A(2,1,9)              123.4835         -DE/DX =    0.0                 !
 ! A2    A(2,1,10)             123.2847         -DE/DX =    0.0                 !
 ! A3    A(9,1,10)             113.2317         -DE/DX =    0.0                 !
 ! A4    A(1,2,3)              121.1769         -DE/DX =    0.0                 !
 ! A5    A(1,2,8)              119.6723         -DE/DX =    0.0                 !
 ! A6    A(3,2,8)              119.1507         -DE/DX =    0.0                 !
 ! A7    A(2,3,4)              113.9613         -DE/DX =    0.0                 !
 ! A8    A(2,3,5)              126.6469         -DE/DX =    0.0                 !
 ! A9    A(4,3,5)              119.3917         -DE/DX =    0.0                 !
 ! A10   A(3,5,6)              122.5878         -DE/DX =    0.0                 !
 ! A11   A(3,5,7)              120.365          -DE/DX =    0.0                 !
 ! A12   A(6,5,7)              117.0471         -DE/DX =    0.0                 !
 ! D1    D(9,1,2,3)            180.0            -DE/DX =    0.0                 !
 ! D2    D(9,1,2,8)              0.0            -DE/DX =    0.0                 !
 ! D3    D(10,1,2,3)             0.0            -DE/DX =    0.0                 !
 ! D4    D(10,1,2,8)           180.0            -DE/DX =    0.0                 !
 ! D5    D(1,2,3,4)              0.0            -DE/DX =    0.0                 !
 ! D6    D(1,2,3,5)            180.0            -DE/DX =    0.0                 !
 ! D7    D(8,2,3,4)            180.0            -DE/DX =    0.0                 !
 ! D8    D(8,2,3,5)              0.0            -DE/DX =    0.0                 !
 ! D9    D(2,3,5,6)              0.0            -DE/DX =    0.0                 !
 ! D10   D(2,3,5,7)            180.0            -DE/DX =    0.0                 !
 ! D11   D(4,3,5,6)            180.0            -DE/DX =    0.0                 !
 ! D12   D(4,3,5,7)              0.0            -DE/DX =    0.0                 !
 --------------------------------------------------------------------------------
 GradGradGradGradGradGradGradGradGradGradGradGradGradGradGradGradGradGrad

                          Input orientation:                          
 ---------------------------------------------------------------------
 Center     Atomic      Atomic             Coordinates (Angstroms)
 Number     Number       Type             X           Y           Z
 ---------------------------------------------------------------------
      1          6           0       -2.070475   -1.673307    0.000000
      2          6           0       -1.434336   -0.519827    0.000000
      3          6           0        0.033535   -0.460860    0.000000
      4          1           0        0.510254   -1.427050    0.000000
      5          6           0        0.778179    0.628845    0.000000
      6          1           0        0.357679    1.616333    0.000000
      7          1           0        1.849703    0.554265    0.000000
      8         17           0       -2.339376    0.959894    0.000000
      9          9           0       -3.383715   -1.779130    0.000000
     10          1           0       -1.570143   -2.620718    0.000000
 ---------------------------------------------------------------------
                    Distance matrix (angstroms):
                    1          2          3          4          5
     1  C    0.000000
     2  C    1.317266   0.000000
     3  C    2.428351   1.469056   0.000000
     4  H    2.592452   2.145807   1.077397   0.000000
     5  C    3.662613   2.492924   1.319830   2.073279   0.000000
     6  H    4.088724   2.788279   2.102332   3.047205   1.073291
     7  H    4.508866   3.455226   2.080611   2.391596   1.074116
     8  Cl   2.646896   1.734552   2.765728   3.717243   3.135082
     9  F    1.317497   2.320759   3.662709   3.909854   4.808295
    10  H    1.071410   2.105276   2.690125   2.398520   4.009273
                    6          7          8          9         10
     6  H    0.000000
     7  H    1.831427   0.000000
     8  Cl   2.775791   4.208672   0.000000
     9  F    5.052445   5.730043   2.931364   0.000000
    10  H    4.655008   4.666461   3.662309   1.999329   0.000000
 Stoichiometry    C4H4ClF
 Framework group  CS[SG(C4H4ClF)]
 Deg. of freedom    17
 Full point group                 CS      NOp   2
 Largest Abelian subgroup         CS      NOp   2
 Largest concise Abelian subgroup C1      NOp   1
                         Standard orientation:                         
 ---------------------------------------------------------------------
 Center     Atomic      Atomic             Coordinates (Angstroms)
 Number     Number       Type             X           Y           Z
 ---------------------------------------------------------------------
      1          6           0       -1.109025    1.013070    0.000000
      2          6           0        0.000000    0.302259    0.000000
      3          6           0        1.318508    0.950072    0.000000
      4          1           0        1.277064    2.026671    0.000000
      5          6           0        2.492522    0.347044    0.000000
      6          1           0        2.593540   -0.721483    0.000000
      7          1           0        3.398948    0.923340    0.000000
      8         17           0       -0.090320   -1.429940    0.000000
      9          9           0       -2.313931    0.480152    0.000000
     10          1           0       -1.120761    2.084416    0.000000
 ---------------------------------------------------------------------
 Rotational constants (GHZ):      4.5482121      2.1696174      1.4689090

 **********************************************************************

            Population analysis using the SCF density.

 **********************************************************************

 Orbital symmetries:
       Occupied  (A') (A') (A') (A') (A') (A') (A') (A') (A') (A")
                 (A') (A') (A') (A') (A') (A') (A') (A') (A") (A')
                 (A') (A') (A") (A') (A') (A") (A")
       Virtual   (A") (A') (A") (A') (A') (A') (A') (A') (A') (A')
                 (A') (A') (A') (A") (A') (A') (A") (A') (A") (A')
                 (A') (A") (A") (A') (A') (A') (A') (A') (A") (A')
                 (A') (A") (A') (A') (A') (A') (A') (A') (A') (A")
                 (A") (A') (A') (A") (A') (A") (A") (A') (A") (A')
                 (A") (A') (A') (A') (A") (A') (A') (A') (A') (A")
                 (A') (A') (A") (A") (A') (A') (A') (A') (A') (A')
                 (A') (A') (A') (A') (A')
 The electronic state is 1-A'.
 Alpha  occ. eigenvalues -- -104.83202 -26.32721 -11.34182 -11.30920 -11.25925
 Alpha  occ. eigenvalues --  -11.23874 -10.56533  -8.03481  -8.03132  -8.03130
 Alpha  occ. eigenvalues --   -1.64614  -1.18117  -1.06650  -1.02156  -0.85682
[...]
 Frequencies --  3362.4496              3434.9970              3442.7790
 Red. masses --     1.0747                 1.0950                 1.1171
 Frc consts  --     7.1591                 7.6123                 7.8012
 IR Inten    --     6.1112                 5.8874                 9.3865
  Atom  AN      X      Y      Z        X      Y      Z        X      Y      Z
     1   6     0.00   0.00   0.00    -0.01   0.09   0.00     0.00   0.00   0.00
     2   6     0.00   0.00   0.00     0.01   0.00   0.00     0.00   0.00   0.00
     3   6    -0.01   0.04   0.00     0.00   0.00   0.00     0.00  -0.01   0.00
     4   1     0.02  -0.42   0.00     0.00  -0.05   0.00     0.00   0.08   0.00
     5   6     0.06  -0.03   0.00     0.00   0.00   0.00    -0.04  -0.09   0.00
     6   1    -0.05   0.61   0.00     0.00   0.04   0.00    -0.07   0.75   0.00
     7   1    -0.56  -0.36   0.00     0.02   0.02   0.00     0.54   0.34   0.00
     8  17     0.00   0.00   0.00     0.00   0.00   0.00     0.00   0.00   0.00
     9   9     0.00   0.00   0.00     0.00   0.00   0.00     0.00   0.00   0.00
    10   1     0.00   0.02   0.00     0.02  -0.99   0.00     0.00   0.04   0.00

 -------------------
 - Thermochemistry -
 -------------------
 Temperature   298.150 Kelvin.  Pressure   1.00000 Atm.
 Atom     1 has atomic number  6 and mass  12.00000
 Atom     2 has atomic number  6 and mass  12.00000
 Atom     3 has atomic number  6 and mass  12.00000
 Atom     4 has atomic number  1 and mass   1.00783
 Atom     5 has atomic number  6 and mass  12.00000
 Atom     6 has atomic number  1 and mass   1.00783
 Atom     7 has atomic number  1 and mass   1.00783
 Atom     8 has atomic number 17 and mass  34.96885
 Atom     9 has atomic number  9 and mass  18.99840
 Atom    10 has atomic number  1 and mass   1.00783
 Molecular mass:   105.99856 amu.
 Principal axes and moments of inertia in atomic units:
                           1         2         3
     Eigenvalues --   396.80234 831.824641228.62698
           X            0.99958   0.02912   0.00000
           Y           -0.02912   0.99958   0.00000
           Z            0.00000   0.00000   1.00000
 This molecule is an asymmetric top.
 Rotational symmetry number  1.
 Rotational temperatures (Kelvin)      0.21828     0.10413     0.07050
 Rotational constants (GHZ):           4.54821     2.16962     1.46891
 Zero-point vibrational energy     195936.8 (Joules/Mol)
                                   46.83001 (Kcal/Mol)
 Warning -- explicit consideration of   6 degrees of freedom as
           vibrations may cause significant error
 Vibrational temperatures:    170.72   318.87   365.97   444.52   722.06
          (Kelvin)            726.79   904.00  1036.23  1110.37  1413.28
                             1560.65  1586.43  1609.30  1819.60  1884.05
                             2075.30  2130.86  2286.11  2663.77  2761.81
                             4807.43  4837.81  4942.19  4953.38
 
 Zero-point correction=                           0.074628 (Hartree/Particle)
 Thermal correction to Energy=                    0.080512
 Thermal correction to Enthalpy=                  0.081456
 Thermal correction to Gibbs Free Energy=         0.044336
 Sum of electronic and zero-point Energies=           -712.588548
 Sum of electronic and thermal Energies=              -712.582665
 Sum of electronic and thermal Enthalpies=            -712.581720
 Sum of electronic and thermal Free Energies=         -712.618841
 
                     E (Thermal)             CV                S
                      KCal/Mol        Cal/Mol-Kelvin    Cal/Mol-Kelvin
 Total                   50.522             19.868             78.126
 Electronic               0.000              0.000              0.000
 Translational            0.889              2.981             39.892
 Rotational               0.889              2.981             27.497
 Vibrational             48.744             13.906             10.737
 Vibration     1          0.609              1.934              3.122
 Vibration     2          0.648              1.808              1.946
 Vibration     3          0.665              1.755              1.700
 Vibration     4          0.698              1.657              1.368
 Vibration     5          0.857              1.246              0.654
 Vibration     6          0.860              1.239              0.645
                       Q            Log10(Q)             Ln(Q)
 Total Bot       0.404595D-20        -20.392979        -46.956569
 Total V=0       0.858251D+14         13.933614         32.083332
 Vib (Bot)       0.413768D-33        -33.383244        -76.867759
 Vib (Bot)    1  0.172276D+01          0.236224          0.543925
 Vib (Bot)    2  0.891912D+00         -0.049678         -0.114388
 Vib (Bot)    3  0.765700D+00         -0.115941         -0.266964
 Vib (Bot)    4  0.612407D+00         -0.212960         -0.490358
 Vib (Bot)    5  0.326952D+00         -0.485517         -1.117943
 Vib (Bot)    6  0.323873D+00         -0.489626         -1.127404
 Vib (V=0)       0.877707D+01          0.943350          2.172143
 Vib (V=0)    1  0.229385D+01          0.360565          0.830230
 Vib (V=0)    2  0.152250D+01          0.182557          0.420354
 Vib (V=0)    3  0.141449D+01          0.150601          0.346771
 Vib (V=0)    4  0.129060D+01          0.110790          0.255104
 Vib (V=0)    5  0.109741D+01          0.040368          0.092952
 Vib (V=0)    6  0.109573D+01          0.039703          0.091420
 Electronic      0.100000D+01          0.000000          0.000000
 Translational   0.428948D+08          7.632405         17.574262
 Rotational      0.227960D+06          5.357859         12.336927
 ***** Axes restored to original set *****
 -------------------------------------------------------------------
 Center     Atomic                   Forces (Hartrees/Bohr)
 Number     Number              X              Y              Z
 -------------------------------------------------------------------
      1        6          -0.000111616    0.000003430    0.000000000
      2        6           0.000152291   -0.000052176    0.000000000
      3        6          -0.000066616   -0.000037614    0.000000000
      4        1          -0.000008996    0.000000548    0.000000000
      5        6          -0.000017267    0.000044160    0.000000000
      6        1           0.000018417    0.000004588    0.000000000
      7        1           0.000003759    0.000001451    0.000000000
      8       17          -0.000036248    0.000075472    0.000000000
      9        9           0.000062312   -0.000013572    0.000000000
     10        1           0.000003964   -0.000026286    0.000000000
 -------------------------------------------------------------------
 Cartesian Forces:  Max     0.000152291 RMS     0.000044244

 GradGradGradGradGradGradGradGradGradGradGradGradGradGradGradGradGradGrad
 Berny optimization.
 Internal  Forces:  Max     0.000083297 RMS     0.000027462
 Search for a local minimum.
 Step number   1 out of a maximum of    2
 All quantities printed in internal units (Hartrees-Bohrs-Radians)
 Second derivative matrix not updated -- analytic derivatives used.
     Eigenvalues ---    0.00589   0.02739   0.02966   0.03657   0.03767
     Eigenvalues ---    0.05122   0.06252   0.12355   0.13130   0.14475
     Eigenvalues ---    0.15777   0.18404   0.20587   0.24330   0.26847
     Eigenvalues ---    0.32685   0.39628   0.39893   0.40723   0.41492
     Eigenvalues ---    0.42109   0.52359   0.73716   0.753801000.00000
     Eigenvalues --- 1000.000001000.000001000.000001000.000001000.00000
     Eigenvalues --- 1000.000001000.000001000.00000
 Angle between quadratic step and forces=  27.63 degrees.
 Linear search not attempted -- first point.
 Iteration  1 RMS(Cart)=  0.00010842 RMS(Int)=  0.00000001
 Iteration  2 RMS(Cart)=  0.00000001 RMS(Int)=  0.00000000
 ClnCor:  largest displacement from symmetrization is 9.13D-15 for atom     1.
 Variable       Old X    -DE/DX   Delta X   Delta X   Delta X     New X
                                 (Linear)    (Quad)   (Total)
    R1        2.48927   0.00005   0.00000   0.00006   0.00006   2.48934
    R2        2.48971  -0.00006   0.00000  -0.00015  -0.00015   2.48956
    R3        2.02467   0.00003   0.00000   0.00007   0.00007   2.02474
    R4        2.77611  -0.00007   0.00000  -0.00022  -0.00022   2.77589
    R5        3.27783   0.00008   0.00000   0.00036   0.00036   3.27819
    R6        2.03598   0.00000   0.00000  -0.00001  -0.00001   2.03597
    R7        2.49412   0.00004   0.00000   0.00006   0.00006   2.49418
    R8        2.02823   0.00000   0.00000  -0.00002  -0.00002   2.02821
    R9        2.02979   0.00000   0.00000   0.00002   0.00002   2.02980
    A1        2.15519   0.00002   0.00000   0.00013   0.00013   2.15532
    A2        2.15172   0.00000   0.00000  -0.00006  -0.00006   2.15166
    A3        1.97627  -0.00002   0.00000  -0.00006  -0.00006   1.97620
    A4        2.11494   0.00003   0.00000   0.00021   0.00021   2.11515
    A5        2.08868   0.00000   0.00000  -0.00010  -0.00010   2.08857
    A6        2.07957  -0.00003   0.00000  -0.00011  -0.00011   2.07947
    A7        1.98900   0.00000   0.00000  -0.00001  -0.00001   1.98899
    A8        2.21041  -0.00001   0.00000  -0.00001  -0.00001   2.21039
    A9        2.08378   0.00001   0.00000   0.00002   0.00002   2.08380
   A10        2.13956   0.00002   0.00000   0.00017   0.00017   2.13974
   A11        2.10077  -0.00001   0.00000  -0.00008  -0.00008   2.10069
   A12        2.04286  -0.00001   0.00000  -0.00010  -0.00010   2.04276
    D1        3.14159   0.00000   0.00000   0.00000   0.00000   3.14159
    D2        0.00000   0.00000   0.00000   0.00000   0.00000   0.00000
    D3        0.00000   0.00000   0.00000   0.00000   0.00000   0.00000
    D4        3.14159   0.00000   0.00000   0.00000   0.00000   3.14159
    D5        0.00000   0.00000   0.00000   0.00000   0.00000   0.00000
    D6        3.14159   0.00000   0.00000   0.00000   0.00000   3.14159
    D7        3.14159   0.00000   0.00000   0.00000   0.00000   3.14159
    D8        0.00000   0.00000   0.00000   0.00000   0.00000   0.00000
    D9        0.00000   0.00000   0.00000   0.00000   0.00000   0.00000
   D10        3.14159   0.00000   0.00000   0.00000   0.00000   3.14159
   D11        3.14159   0.00000   0.00000   0.00000   0.00000   3.14159
   D12        0.00000   0.00000   0.00000   0.00000   0.00000   0.00000
         Item               Value     Threshold  Converged?
 Maximum Force            0.000083     0.000450     YES
 RMS     Force            0.000027     0.000300     YES
 Maximum Displacement     0.000250     0.001800     YES
 RMS     Displacement     0.000108     0.001200     YES
 Predicted change in Energy=-4.142778D-08
 Optimization completed.
    -- Stationary point found.
                           ----------------------------
                           !   Optimized Parameters   !
                           ! (Angstroms and Degrees)  !
 --------------------------                            --------------------------
 ! Name  Definition              Value          Derivative Info.                !
 --------------------------------------------------------------------------------
 ! R1    R(1,2)                  1.3173         -DE/DX =    0.0001              !
 ! R2    R(1,9)                  1.3175         -DE/DX =   -0.0001              !
 ! R3    R(1,10)                 1.0714         -DE/DX =    0.0                 !
 ! R4    R(2,3)                  1.4691         -DE/DX =   -0.0001              !
 ! R5    R(2,8)                  1.7346         -DE/DX =    0.0001              !
 ! R6    R(3,4)                  1.0774         -DE/DX =    0.0                 !
 ! R7    R(3,5)                  1.3198         -DE/DX =    0.0                 !
 ! R8    R(5,6)                  1.0733         -DE/DX =    0.0                 !
 ! R9    R(5,7)                  1.0741         -DE/DX =    0.0                 !
 ! A1    A(2,1,9)              123.4835         -DE/DX =    0.0                 !
 ! A2    A(2,1,10)             123.2847         -DE/DX =    0.0                 !
 ! A3    A(9,1,10)             113.2317         -DE/DX =    0.0                 !
 ! A4    A(1,2,3)              121.1769         -DE/DX =    0.0                 !
 ! A5    A(1,2,8)              119.6723         -DE/DX =    0.0                 !
 ! A6    A(3,2,8)              119.1507         -DE/DX =    0.0                 !
 ! A7    A(2,3,4)              113.9613         -DE/DX =    0.0                 !
 ! A8    A(2,3,5)              126.6469         -DE/DX =    0.0                 !
 ! A9    A(4,3,5)              119.3917         -DE/DX =    0.0                 !
 ! A10   A(3,5,6)              122.5878         -DE/DX =    0.0                 !
 ! A11   A(3,5,7)              120.365          -DE/DX =    0.0                 !
 ! A12   A(6,5,7)              117.0471         -DE/DX =    0.0                 !
 ! D1    D(9,1,2,3)            180.0            -DE/DX =    0.0                 !
 ! D2    D(9,1,2,8)              0.0            -DE/DX =    0.0                 !
 ! D3    D(10,1,2,3)             0.0            -DE/DX =    0.0                 !
 ! D4    D(10,1,2,8)           180.0            -DE/DX =    0.0                 !
 ! D5    D(1,2,3,4)              0.0            -DE/DX =    0.0                 !
 ! D6    D(1,2,3,5)            180.0            -DE/DX =    0.0                 !
 ! D7    D(8,2,3,4)            180.0            -DE/DX =    0.0                 !
 ! D8    D(8,2,3,5)              0.0            -DE/DX =    0.0                 !
 ! D9    D(2,3,5,6)              0.0            -DE/DX =    0.0                 !
 ! D10   D(2,3,5,7)            180.0            -DE/DX =    0.0                 !
 ! D11   D(4,3,5,6)            180.0            -DE/DX =    0.0                 !
 ! D12   D(4,3,5,7)              0.0            -DE/DX =    0.0                 !
 --------------------------------------------------------------------------------
 GradGradGradGradGradGradGradGradGradGradGradGradGradGradGradGradGradGrad

 1\1\GINC-MALLOS71\Freq\RHF\6-31G(d)\C4H4Cl1F1\MARLIN\26-Oct-2024\0\\#N
  Geom=AllCheck Guess=TCheck SCRF=Check GenChk RHF/6-31G(d) Freq\\Title
  Card Required\\0,1\C,-2.0704748564,-1.6733074552,0.\C,-1.4343364401,-
 0.5198269685,0.\C,0.0335354159,-0.4608600283,0.\H,0.510254481,-1.42704
 98086,0.\C,0.7781786775,0.6288448826,0.\H,0.3576785603,1.6163331398,0.
 \H,1.8497027504,0.5542648006,0.\Cl,-2.3393762275,0.9598942212,0.\F,-3.
 3837153397,-1.7791297562,0.\H,-1.5701427514,-2.6207181074,0.\\Version=
 EM64L-G09RevA.01\State=1-A'\HF=-712.6631764\RMSD=9.202e-10\RMSF=4.424e
 -05\ZeroPoint=0.0746284\Thermal=0.0805117\Dipole=0.9180746,-0.5338009,
 0.\DipoleDeriv=1.2688455,0.8353024,0.,0.2324958,0.4380278,0.,0.,0.,0.0
 969275,0.1854472,-0.3959854,0.,-0.5340884,0.4123097,0.,0.,0.,-0.065322
 9,0.3033673,0.129784,0.,0.0644821,-0.0345039,0.,0.,0.,-0.1346045,-0.03
 933,0.0424983,0.,0.0568439,-0.0740597,0.,0.,0.,0.1453471,-0.0273118,-0
 .1331237,0.,-0.0670398,0.0282614,0.,0.,0.,-0.2934411,0.0395702,0.06353
 8,0.,0.0398167,-0.0116554,0.,0.,0.,0.1648216,-0.105956,-0.0109642,0.,0
 .0275603,0.0575633,0.,0.,0.,0.1466232,-0.2800368,0.2555439,0.,0.206872
 1,-0.4612307,0.,0.,0.,-0.0554067,-1.3693545,-0.7904514,0.,-0.1006798,-
 0.3335519,0.,0.,0.,-0.1565815,0.0247588,0.0038581,0.,0.0737371,-0.0211
 606,0.,0.,0.,0.1516373\Polar=62.2710946,13.9805703,69.5018936,0.,0.,21
 .1634652\HyperPolar=111.0461639,20.1789012,21.4418181,-63.8696693,0.,0
 .,0.,-5.6169388,-2.2041992,0.\PG=CS [SG(C4H4Cl1F1)]\NImag=0\\0.8091627
 9,0.11727258,1.00782657,0.,0.,0.15048119,-0.22269041,-0.20460299,0.,0.
 67788115,-0.23428800,-0.53819618,0.,0.18763541,0.82731545,0.,0.,-0.068
 08213,0.,0.,0.13247360,-0.02980336,-0.02138566,0.,-0.28120475,0.000989
 77,0.,0.74257560,-0.03598610,0.00480185,0.,0.00053010,-0.10986986,0.,0
 .14213216,0.94890673,0.,0.,0.00099845,0.,0.,-0.06885255,0.,0.,0.154268
 97,0.00019375,0.00122341,0.,-0.01284548,0.03034768,0.,-0.13044984,0.12
 241721,0.,0.13600938,-0.00165520,-0.00097389,0.,-0.00100977,0.00261166
 ,0.,0.12028700,-0.30964233,0.,-0.12801745,0.33146039,0.,0.,-0.00043152
 ,0.,0.,0.00307335,0.,0.,-0.04740173,0.,0.,0.03062456,-0.00088398,0.009
 24372,0.,-0.03042853,-0.04133192,0.,-0.29531400,-0.24058525,0.,0.01417
 411,0.01585822,0.,0.82304043,0.00483023,0.00353755,0.,-0.01401561,0.00
 517529,0.,-0.23268062,-0.49857936,0.,-0.02204874,-0.02439952,0.,0.1195
 2433,0.92161867,0.,0.,0.00076278,0.,0.,0.00695133,0.,0.,-0.06410089,0.
 ,0.,0.00803609,0.,0.,0.13874680,-0.00004857,0.00003454,0.,0.00088009,-
 0.00009277,0.,0.01610844,-0.01965472,0.,-0.00218368,-0.00379073,0.,-0.
 12203042,0.11948416,0.,0.11816228,-0.00005185,-0.00028175,0.,0.0020320
 6,-0.00057065,0.,0.01428034,-0.02199506,0.,-0.00357429,-0.00286716,0.,
 0.11233395,-0.33592282,0.,-0.12524557,0.35568291,0.,0.,0.00004123,0.,0
 .,-0.00837039,0.,0.,0.00770773,0.,0.,0.01335604,0.,0.,-0.04683761,0.,0
 .,0.02914542,-0.00039376,0.00050084,0.,0.00083604,-0.00276127,0.,-0.01
 463893,0.00476129,0.,0.00127537,-0.00034245,0.,-0.38323064,0.02375604,
 0.,-0.00723405,-0.00067734,0.,0.40390831,-0.00093153,0.00101679,0.,-0.
 00147383,-0.00603930,0.,-0.03382384,0.00636285,0.,-0.00009569,0.001425
 01,0.,0.03101237,-0.07238097,0.,0.02976871,0.00368559,0.,-0.02459583,0
 .06567114,0.,0.,0.00086982,0.,0.,0.01370121,0.,0.,0.00665169,0.,0.,-0.
 00938207,0.,0.,-0.04372721,0.,0.,0.00446633,0.,0.,0.02884122,-0.003406
 16,0.00111484,0.,-0.08882284,0.07115104,0.,-0.01447514,0.03566999,0.,-
 0.00561285,-0.00119869,0.,-0.00107808,-0.00028752,0.,-0.00370171,0.000
 97957,0.,0.00008988,0.00075848,0.,0.11051283,0.03969943,-0.04512893,0.
 ,0.06602219,-0.16957849,0.,0.00626931,-0.01321956,0.,0.00144999,0.0012
 2906,0.,-0.00258007,-0.00011968,0.,-0.00079746,0.00189339,0.,-0.000219
 12,0.00075926,0.,-0.10245253,0.22532593,0.,0.,0.00933385,0.,0.,-0.0301
 2604,0.,0.,0.00297103,0.,0.,0.00200503,0.,0.,-0.00008927,0.,0.,-0.0002
 2776,0.,0.,0.00004742,0.,0.,0.01453522,-0.42725633,-0.02782471,0.,-0.0
 5633777,0.00032672,0.,0.00725738,-0.00808323,0.,-0.00002802,0.00066391
 ,0.,-0.00446167,0.00133612,0.,0.00001618,-0.00008691,0.,-0.00060213,-0
 .00064955,0.,0.00660352,-0.00313225,0.,0.51220666,-0.01800426,-0.09629
 794,0.,-0.05002511,0.00530920,0.,0.00227262,-0.00671914,0.,-0.00062870
 ,0.00054548,0.,-0.00288542,0.00076261,0.,0.00012237,0.00020749,0.,-0.0
 0038003,-0.00047648,0.,-0.00450438,0.00213594,0.,0.04118101,0.08146619
 ,0.,0.,-0.04754521,0.,0.,0.01010645,0.,0.,0.01306255,0.,0.,-0.00037800
 ,0.,0.,0.00029236,0.,0.,0.00035604,0.,0.,-0.00160071,0.,0.,-0.00634779
 ,0.,0.,0.02544002,-0.12487396,0.12442343,0.,0.01273251,-0.01197667,0.,
 -0.00005540,-0.00120143,0.,-0.00053274,-0.00079486,0.,0.00021278,0.000
 10164,0.,0.00003144,0.00001005,0.,-0.00001008,0.00003069,0.,-0.0001094
 5,-0.00425949,0.,-0.03739781,0.03285190,0.,0.15000272,0.12911469,-0.33
 630406,0.,0.01490756,-0.01615712,0.,0.00165891,-0.00004612,0.,-0.00107
 340,0.00061129,0.,-0.00058992,0.00030823,0.,0.00017147,0.00016805,0.,-
 0.00004213,-0.00002389,0.,-0.00123081,-0.00329693,0.,-0.00373110,0.013
 06666,0.,-0.13918527,0.34167389,0.,0.,-0.04642845,0.,0.,0.00912517,0.,
 0.,-0.00530524,0.,0.,0.00049826,0.,0.,-0.00003438,0.,0.,0.00036298,0.,
 0.,0.00013230,0.,0.,0.00789830,0.,0.,0.00661429,0.,0.,0.02713677\\0.00
 011162,-0.00000343,0.,-0.00015229,0.00005218,0.,0.00006662,0.00003761,
 0.,0.00000900,-0.00000055,0.,0.00001727,-0.00004416,0.,-0.00001842,-0.
 00000459,0.,-0.00000376,-0.00000145,0.,0.00003625,-0.00007547,0.,-0.00
 006231,0.00001357,0.,-0.00000396,0.00002629,0.\\\@


 I SUPPOSE A BABY LLAMA HAS A MMAMA AND A PPOPA.
     -- RICHARD AMOUR
 Job cpu time:  0 days  0 hours  1 minutes 13.5 seconds.
 File lengths (MBytes):  RWF=     18 Int=      0 D2E=      0 Chk=      2 Scr=      1
 Normal termination of Gaussian 09 at Sat Oct 26 19:19:28 2024.
