 Entering Gaussian System, Link 0=g09
 Initial command:
 /u/local/G09/g09/l1.exe /tmp/marlin/22991.mallos00.local/Gau-10374.inp -scrdir=/tmp/marlin/22991.mallos00.local/
 Entering Link 1 = /u/local/G09/g09/l1.exe PID=     10376.
  
 Copyright (c) 1988,1990,1992,1993,1995,1998,2003,2009, Gaussian, Inc.
                  All Rights Reserved.
  
 This is part of the Gaussian(R) 09 program.  It is based on
 the Gaussian(R) 03 system (copyright 2003, Gaussian, Inc.),
 the Gaussian(R) 98 system (copyright 1998, Gaussian, Inc.),
 the Gaussian(R) 94 system (copyright 1995, Gaussian, Inc.),
 the Gaussian 92(TM) system (copyright 1992, Gaussian, Inc.),
 the Gaussian 90(TM) system (copyright 1990, Gaussian, Inc.),
 the Gaussian 88(TM) system (copyright 1988, Gaussian, Inc.),
 the Gaussian 86(TM) system (copyright 1986, Carnegie Mellon
 University), and the Gaussian 82(TM) system (copyright 1983,
 Carnegie Mellon University). Gaussian is a federally registered
 trademark of Gaussian, Inc.
  
 This software contains proprietary and confidential information,
 including trade secrets, belonging to Gaussian, Inc.
  
 This software is provided under written license and may be
 used, copied, transmitted, or stored only in accord with that
 written license.
  
 The following legend is applicable only to US Government
 contracts under FAR:
  
                    RESTRICTED RIGHTS LEGEND
  
 Use, reproduction and disclosure by the US Government is
 subject to restrictions as set forth in subparagraphs (a)
 and (c) of the Commercial Computer Software - Restricted
 Rights clause in FAR 52.227-19.
  
 Gaussian, Inc.
 340 Quinnipiac St., Bldg. 40, Wallingford CT 06492
  
  
 ---------------------------------------------------------------
 Warning -- This program may not be used in any manner that
 competes with the business of Gaussian, Inc. or will provide
 assistance to any competitor of Gaussian, Inc.  The licensee
 of this program is prohibited from giving any competitor of
 Gaussian, Inc. access to this program.  By using this program,
 the user acknowledges that Gaussian, Inc. is engaged in the
 business of creating and licensing software in the field of
 computational chemistry and represents and warrants to the
 licensee that it is not a competitor of Gaussian, Inc. and that
 it will not use this program in any manner prohibited above.
 ---------------------------------------------------------------
  

 Cite this work as:
 Gaussian 09, Revision A.01,
 M. J. Frisch, G. W. Trucks, H. B. Schlegel, G. E. Scuseria, 
 M. A. Robb, J. R. Cheeseman, G. Scalmani, V. Barone, B. Mennucci, 
 G. A. Petersson, H. Nakatsuji, M. Caricato, X. Li, H. P. Hratchian, 
 A. F. Izmaylov, J. Bloino, G. Zheng, J. L. Sonnenberg, M. Hada, 
 M. Ehara, K. Toyota, R. Fukuda, J. Hasegawa, M. Ishida, T. Nakajima, 
 Y. Honda, O. Kitao, H. Nakai, T. Vreven, J. A. Montgomery, Jr., 
 J. E. Peralta, F. Ogliaro, M. Bearpark, J. J. Heyd, E. Brothers, 
 K. N. Kudin, V. N. Staroverov, R. Kobayashi, J. Normand, 
 K. Raghavachari, A. Rendell, J. C. Burant, S. S. Iyengar, J. Tomasi, 
 M. Cossi, N. Rega, J. M. Millam, M. Klene, J. E. Knox, J. B. Cross, 
 V. Bakken, C. Adamo, J. Jaramillo, R. Gomperts, R. E. Stratmann, 
 O. Yazyev, A. J. Austin, R. Cammi, C. Pomelli, J. W. Ochterski, 
 R. L. Martin, K. Morokuma, V. G. Zakrzewski, G. A. Voth, 
 P. Salvador, J. J. Dannenberg, S. Dapprich, A. D. Daniels, 
 O. Farkas, J. B. Foresman, J. V. Ortiz, J. Cioslowski, 
 and D. J. Fox, Gaussian, Inc., Wallingford CT, 2009.
 
 ******************************************
 Gaussian 09:  EM64L-G09RevA.01  8-May-2009
                26-Oct-2024 
 ******************************************
 %mem=206GB
 %nproc=20
 Will use up to   20 processors via shared memory.
 %chk=6-base5.chk
 -----------------------------------------------
 # opt freq=noraman hf/cc-pvtz geom=connectivity
 -----------------------------------------------
 1/18=20,19=15,38=1,57=2/1,3;
 2/9=110,12=2,17=6,18=5,40=1/2;
 3/5=16,6=1,11=9,16=1,25=1,30=1,71=1/1,2,3;
 4//1;
 5/5=2,38=5/2;
 6/7=2,8=2,9=2,10=2,28=1/1;
 7//1,2,3,16;
 1/18=20,19=15/3(2);
 2/9=110/2;
 99//99;
 2/9=110/2;
 3/5=16,6=1,11=9,16=1,25=1,30=1,71=1/1,2,3;
 4/5=5,16=3/1;
 5/5=2,38=5/2;
 7//1,2,3,16;
 1/18=20,19=15/3(-5);
 2/9=110/2;
 6/7=2,8=2,9=2,10=2,19=2,28=1/1;
 99/9=1/99;
 -------------------
 Title Card Required
 -------------------
 Symbolic Z-matrix:
 Charge =  0 Multiplicity = 1
 C                    -2.1124   -1.70543   0. 
 C                    -1.43713  -0.53045   0. 
 C                     0.10287  -0.53045   0. 
 H                     0.63603  -1.45815   0. 
 C                     0.78511   0.6405    0. 
 H                     0.25747   1.57135   0. 
 H                     1.8551    0.63414   0. 
 Cl                   -2.31411   0.9955    0. 
 F                    -3.4624   -1.70543   0. 
 H                    -1.57924  -2.63313   0. 
 

 GradGradGradGradGradGradGradGradGradGradGradGradGradGradGradGradGradGrad
 Berny optimization.
 Initialization pass.
                           ----------------------------
                           !    Initial Parameters    !
                           ! (Angstroms and Degrees)  !
 --------------------------                            --------------------------
 ! Name  Definition              Value          Derivative Info.                !
 --------------------------------------------------------------------------------
 ! R1    R(1,2)                  1.3552         estimate D2E/DX2                !
 ! R2    R(1,9)                  1.35           estimate D2E/DX2                !
 ! R3    R(1,10)                 1.07           estimate D2E/DX2                !
 ! R4    R(2,3)                  1.54           estimate D2E/DX2                !
 ! R5    R(2,8)                  1.76           estimate D2E/DX2                !
 ! R6    R(3,4)                  1.07           estimate D2E/DX2                !
 ! R7    R(3,5)                  1.3552         estimate D2E/DX2                !
 ! R8    R(5,6)                  1.07           estimate D2E/DX2                !
 ! R9    R(5,7)                  1.07           estimate D2E/DX2                !
 ! A1    A(2,1,9)              119.8865         estimate D2E/DX2                !
 ! A2    A(2,1,10)             120.2269         estimate D2E/DX2                !
 ! A3    A(9,1,10)             119.8865         estimate D2E/DX2                !
 ! A4    A(1,2,3)              119.8865         estimate D2E/DX2                !
 ! A5    A(1,2,8)              120.2269         estimate D2E/DX2                !
 ! A6    A(3,2,8)              119.8865         estimate D2E/DX2                !
 ! A7    A(2,3,4)              119.8865         estimate D2E/DX2                !
 ! A8    A(2,3,5)              120.2269         estimate D2E/DX2                !
 ! A9    A(4,3,5)              119.8865         estimate D2E/DX2                !
 ! A10   A(3,5,6)              120.2269         estimate D2E/DX2                !
 ! A11   A(3,5,7)              119.8865         estimate D2E/DX2                !
 ! A12   A(6,5,7)              119.8865         estimate D2E/DX2                !
 ! D1    D(9,1,2,3)            180.0            estimate D2E/DX2                !
 ! D2    D(9,1,2,8)              0.0            estimate D2E/DX2                !
 ! D3    D(10,1,2,3)             0.0            estimate D2E/DX2                !
 ! D4    D(10,1,2,8)           180.0            estimate D2E/DX2                !
 ! D5    D(1,2,3,4)              0.0            estimate D2E/DX2                !
 ! D6    D(1,2,3,5)            180.0            estimate D2E/DX2                !
 ! D7    D(8,2,3,4)            180.0            estimate D2E/DX2                !
 ! D8    D(8,2,3,5)              0.0            estimate D2E/DX2                !
 ! D9    D(2,3,5,6)              0.0            estimate D2E/DX2                !
 ! D10   D(2,3,5,7)            180.0            estimate D2E/DX2                !
 ! D11   D(4,3,5,6)            180.0            estimate D2E/DX2                !
 ! D12   D(4,3,5,7)              0.0            estimate D2E/DX2                !
 --------------------------------------------------------------------------------
 Trust Radius=3.00D-01 FncErr=1.00D-07 GrdErr=1.00D-07
 Number of steps in this run=  43 maximum allowed number of steps= 100.
 GradGradGradGradGradGradGradGradGradGradGradGradGradGradGradGradGradGrad

                          Input orientation:                          
 ---------------------------------------------------------------------
 Center     Atomic      Atomic             Coordinates (Angstroms)
 Number     Number       Type             X           Y           Z
 ---------------------------------------------------------------------
      1          6           0       -2.112403   -1.705426    0.000000
      2          6           0       -1.437129   -0.530449    0.000000
      3          6           0        0.102871   -0.530449    0.000000
      4          1           0        0.636035   -1.458154    0.000000
      5          6           0        0.785114    0.640495    0.000000
      6          1           0        0.257472    1.571352    0.000000
      7          1           0        1.855096    0.634138    0.000000
      8         17           0       -2.314109    0.995496    0.000000
      9          9           0       -3.462403   -1.705426    0.000000
     10          1           0       -1.579240   -2.633131    0.000000
 ---------------------------------------------------------------------
                    Distance matrix (angstroms):
                    1          2          3          4          5
     1  C    0.000000
     2  C    1.355200   0.000000
     3  C    2.507591   1.540000   0.000000
     4  H    2.759539   2.271265   1.070000   0.000000
     5  C    3.728131   2.511867   1.355200   2.103938   0.000000
     6  H    4.043956   2.699859   2.107479   3.053066   1.070000
     7  H    4.605932   3.492135   2.103938   2.421527   1.070000
     8  Cl   2.708443   1.760000   2.858373   3.837153   3.119488
     9  F    1.350000   2.341433   3.753898   4.105891   4.852294
    10  H    1.070000   2.107479   2.692725   2.507591   4.038168
                    6          7          8          9         10
     6  H    0.000000
     7  H    1.852234   0.000000
     8  Cl   2.635268   4.184835   0.000000
     9  F    4.957292   5.809420   2.934887   0.000000
    10  H    4.588157   4.740222   3.702292   2.099272   0.000000
 Stoichiometry    C4H4ClF
 Framework group  CS[SG(C4H4ClF)]
 Deg. of freedom    17
 Full point group                 CS      NOp   2
 Largest Abelian subgroup         CS      NOp   2
 Largest concise Abelian subgroup C1      NOp   1
                         Standard orientation:                         
 ---------------------------------------------------------------------
 Center     Atomic      Atomic             Coordinates (Angstroms)
 Number     Number       Type             X           Y           Z
 ---------------------------------------------------------------------
      1          6           0        1.463460   -0.532748    0.000000
      2          6           0        0.288483    0.142526    0.000000
      3          6           0        0.288483    1.682526    0.000000
      4          1           0        1.216188    2.215690    0.000000
      5          6           0       -0.882462    2.364770    0.000000
      6          1           0       -1.813318    1.837127    0.000000
      7          1           0       -0.876104    3.434751    0.000000
      8         17           0       -1.237462   -0.734453    0.000000
      9          9           0        1.463460   -1.882748    0.000000
     10          1           0        2.391165    0.000416    0.000000
 ---------------------------------------------------------------------
 Rotational constants (GHZ):      4.4300235      2.1166708      1.4323109
 Standard basis: CC-pVTZ (5D, 7F)
 There are   163 symmetry adapted basis functions of A'  symmetry.
 There are    77 symmetry adapted basis functions of A"  symmetry.
 Integral buffers will be    131072 words long.
 Raffenetti 1 integral format.
 Two-electron integral symmetry is turned on.
   240 basis functions,   422 primitive gaussians,   274 cartesian basis functions
    27 alpha electrons       27 beta electrons
       nuclear repulsion energy       264.6556380902 Hartrees.
 NAtoms=   10 NActive=   10 NUniq=   10 SFac= 7.50D-01 NAtFMM=   80 NAOKFM=F Big=F
 One-electron integrals computed using PRISM.
 NBasis=   240 RedAO= T  NBF=   163    77
 NBsUse=   240 1.00D-06 NBFU=   163    77
 Harris functional with IExCor=  205 diagonalized for initial guess.
 ExpMin= 1.03D-01 ExpMax= 4.56D+05 ExpMxC= 1.44D+03 IAcc=2 IRadAn=         0 AccDes= 0.00D+00
 HarFok:  IExCor=  205 AccDes= 0.00D+00 IRadAn=         0 IDoV= 1
 ScaDFX=  1.000000  1.000000  1.000000  1.000000
 FoFCou: FMM=F IPFlag=           0 FMFlag=      100000 FMFlg1=           0
         NFxFlg=           0 DoJE=T BraDBF=F KetDBF=T FulRan=T
         Omega=  0.000000  0.000000  1.000000  0.000000  0.000000 ICntrl=     500 IOpCl=  0
         NMat0=    1 NMatS0=    1 NMatT0=    0 NMatD0=    1 NMtDS0=    0 NMtDT0=    0
         I1Cent=           4 NGrid=           0.
 Petite list used in FoFCou.
 Initial guess orbital symmetries:
       Occupied  (A') (A') (A') (A') (A') (A') (A') (A') (A") (A')
                 (A') (A') (A') (A') (A') (A') (A') (A') (A') (A')
                 (A") (A') (A") (A') (A") (A') (A")
       Virtual   (A") (A') (A") (A') (A') (A') (A') (A') (A') (A')
                 (A') (A') (A") (A') (A') (A") (A') (A') (A') (A")
                 (A") (A') (A") (A') (A") (A') (A') (A') (A') (A")
                 (A') (A') (A") (A') (A') (A") (A") (A') (A') (A')
                 (A') (A') (A") (A') (A") (A') (A') (A') (A") (A')
                 (A") (A') (A") (A") (A') (A') (A') (A') (A") (A')
                 (A") (A') (A') (A') (A") (A') (A') (A") (A') (A')
                 (A') (A') (A') (A') (A') (A') (A") (A") (A') (A")
                 (A") (A") (A') (A') (A') (A') (A") (A") (A') (A")
                 (A') (A') (A") (A") (A") (A') (A') (A') (A') (A')
                 (A') (A") (A') (A") (A') (A') (A") (A') (A') (A')
                 (A") (A") (A') (A") (A') (A') (A") (A") (A') (A')
                 (A') (A') (A") (A") (A') (A') (A') (A") (A') (A")
                 (A') (A") (A') (A') (A") (A") (A") (A') (A") (A')
                 (A') (A') (A") (A') (A') (A') (A') (A") (A') (A")
                 (A') (A') (A') (A") (A") (A') (A') (A") (A") (A')
                 (A") (A') (A") (A') (A') (A') (A') (A") (A') (A")
                 (A') (A") (A') (A') (A') (A") (A") (A') (A') (A')
                 (A") (A') (A") (A') (A') (A") (A') (A') (A') (A')
                 (A') (A') (A') (A') (A') (A') (A") (A') (A") (A')
                 (A") (A') (A') (A") (A') (A') (A") (A') (A') (A')
                 (A') (A') (A')
 The electronic state of the initial guess is 1-A'.
 Requested convergence on RMS density matrix=1.00D-08 within 128 cycles.
 Requested convergence on MAX density matrix=1.00D-06.
 Requested convergence on             energy=1.00D-06.
 No special actions if energy rises.
 Keep R1 ints in memory in canonical form, NReq=720370894.
 SCF Done:  E(RHF) =  -712.784604251     A.U. after   13 cycles
             Convg  =    0.4801D-08             -V/T =  2.0008

 **********************************************************************

            Population analysis using the SCF density.

 **********************************************************************

 Orbital symmetries:
       Occupied  (A') (A') (A') (A') (A') (A') (A') (A') (A") (A')
                 (A') (A') (A') (A') (A') (A') (A') (A') (A") (A')
                 (A') (A') (A') (A") (A') (A") (A")
       Virtual   (A") (A') (A') (A') (A") (A') (A') (A') (A') (A')
                 (A') (A") (A') (A') (A") (A') (A') (A") (A') (A')
                 (A") (A") (A') (A') (A') (A") (A') (A') (A') (A')
                 (A") (A') (A") (A') (A') (A') (A") (A") (A') (A')
                 (A') (A') (A") (A') (A") (A') (A') (A") (A') (A")
                 (A') (A') (A") (A") (A') (A') (A') (A') (A") (A')
                 (A") (A') (A') (A') (A") (A') (A') (A") (A') (A')
                 (A') (A') (A') (A') (A') (A') (A") (A") (A') (A")
                 (A") (A') (A") (A') (A') (A') (A") (A") (A') (A")
                 (A') (A') (A") (A') (A") (A") (A') (A') (A') (A')
                 (A') (A") (A') (A") (A') (A') (A") (A') (A') (A')
                 (A") (A") (A') (A") (A') (A") (A") (A') (A') (A')
                 (A') (A") (A') (A") (A') (A') (A") (A') (A") (A')
                 (A') (A") (A') (A") (A') (A") (A") (A') (A") (A')
                 (A') (A") (A') (A') (A') (A') (A') (A") (A") (A')
                 (A') (A') (A") (A') (A") (A') (A') (A") (A") (A')
                 (A") (A') (A") (A') (A') (A") (A') (A') (A') (A")
                 (A') (A") (A') (A') (A') (A") (A') (A") (A') (A')
                 (A") (A") (A') (A') (A') (A") (A') (A') (A') (A')
                 (A') (A') (A') (A') (A') (A') (A") (A') (A") (A')
                 (A") (A') (A') (A") (A') (A') (A") (A') (A') (A')
                 (A') (A') (A')
 The electronic state is 1-A'.
 Alpha  occ. eigenvalues -- -104.84947 -26.32006 -11.34407 -11.32460 -11.27129
 Alpha  occ. eigenvalues --  -11.24346 -10.57356  -8.04042  -8.03848  -8.03847
 Alpha  occ. eigenvalues --   -1.63293  -1.16761  -1.05982  -1.01489  -0.84513
 Alpha  occ. eigenvalues --   -0.78313  -0.73639  -0.70458  -0.69927  -0.63199
 Alpha  occ. eigenvalues --   -0.59778  -0.56643  -0.53279  -0.52198  -0.46183
 Alpha  occ. eigenvalues --   -0.42157  -0.33857
 Alpha virt. eigenvalues --    0.10172   0.13648   0.16902   0.18214   0.18889
 Alpha virt. eigenvalues --    0.20595   0.22210   0.28688   0.32597   0.33242
 Alpha virt. eigenvalues --    0.39753   0.41338   0.43422   0.44114   0.46557
 Alpha virt. eigenvalues --    0.46720   0.48422   0.49732   0.51120   0.53540
 Alpha virt. eigenvalues --    0.56323   0.56537   0.57767   0.58698   0.60373
 Alpha virt. eigenvalues --    0.61360   0.63125   0.64516   0.66037   0.67589
 Alpha virt. eigenvalues --    0.69481   0.74059   0.75007   0.75212   0.80681
 Alpha virt. eigenvalues --    0.80936   0.81294   0.83438   0.84801   0.88714
 Alpha virt. eigenvalues --    0.92246   0.97666   0.98396   1.00009   1.03322
 Alpha virt. eigenvalues --    1.08607   1.10166   1.10599   1.11531   1.16725
 Alpha virt. eigenvalues --    1.16760   1.19181   1.19778   1.20714   1.21978
 Alpha virt. eigenvalues --    1.28906   1.32743   1.32942   1.34527   1.40412
 Alpha virt. eigenvalues --    1.40991   1.46507   1.49178   1.50575   1.54118
 Alpha virt. eigenvalues --    1.57715   1.62002   1.64991   1.70222   1.72087
 Alpha virt. eigenvalues --    1.76251   1.79872   1.86339   1.99129   2.04314
 Alpha virt. eigenvalues --    2.10830   2.20293   2.23891   2.26724   2.29077
 Alpha virt. eigenvalues --    2.31803   2.32093   2.33142   2.33878   2.35335
 Alpha virt. eigenvalues --    2.38056   2.40662   2.41902   2.42644   2.45071
 Alpha virt. eigenvalues --    2.46256   2.50036   2.54863   2.55245   2.57938
 Alpha virt. eigenvalues --    2.59308   2.59471   2.61022   2.66073   2.69136
 Alpha virt. eigenvalues --    2.70730   2.73053   2.76319   2.78522   2.80130
 Alpha virt. eigenvalues --    2.83147   2.84259   2.88237   2.92783   2.96805
 Alpha virt. eigenvalues --    2.97664   3.03382   3.05022   3.11061   3.13166
 Alpha virt. eigenvalues --    3.16495   3.17312   3.17537   3.23975   3.27036
 Alpha virt. eigenvalues --    3.29432   3.30222   3.30326   3.30720   3.33562
 Alpha virt. eigenvalues --    3.38211   3.38379   3.38730   3.42347   3.45690
 Alpha virt. eigenvalues --    3.46563   3.47904   3.52233   3.53473   3.54458
 Alpha virt. eigenvalues --    3.54708   3.58725   3.63012   3.64893   3.69129
 Alpha virt. eigenvalues --    3.72963   3.77256   3.78001   3.80999   3.85446
 Alpha virt. eigenvalues --    3.87468   3.91846   3.92154   3.96080   3.98243
 Alpha virt. eigenvalues --    3.99643   4.03101   4.11543   4.13418   4.13794
 Alpha virt. eigenvalues --    4.16444   4.20861   4.21856   4.22191   4.35620
 Alpha virt. eigenvalues --    4.35787   4.38030   4.40629   4.44236   4.47199
 Alpha virt. eigenvalues --    4.57713   4.58532   4.64932   4.69844   4.71780
 Alpha virt. eigenvalues --    4.76017   4.80241   4.82009   4.89438   5.01541
 Alpha virt. eigenvalues --    5.05231   5.17369   5.18894   5.19185   5.28263
 Alpha virt. eigenvalues --    5.29000   5.34936   5.35141   5.42362   5.44334
 Alpha virt. eigenvalues --    5.46565   5.56801   5.60815   5.76422   5.89100
 Alpha virt. eigenvalues --    5.99480   6.20010   6.28642   6.30496   6.54330
 Alpha virt. eigenvalues --    6.67066   7.38660   7.39022   7.50300   7.55263
 Alpha virt. eigenvalues --    7.75185   7.87005   8.13970   8.93008   8.98592
 Alpha virt. eigenvalues --    9.12915   9.35111   9.53899   9.89252  11.72689
 Alpha virt. eigenvalues --   12.15060  13.67624  14.61335
          Condensed to atoms (all electrons):
              1          2          3          4          5          6
     1  C    4.683139   0.526272  -0.025367  -0.001501  -0.000282   0.000580
     2  C    0.526272   5.035278   0.340993  -0.025813  -0.068374  -0.004935
     3  C   -0.025367   0.340993   4.951656   0.419501   0.615575  -0.045930
     4  H   -0.001501  -0.025813   0.419501   0.467029  -0.040220   0.003481
     5  C   -0.000282  -0.068374   0.615575  -0.040220   4.971074   0.420335
     6  H    0.000580  -0.004935  -0.045930   0.003481   0.420335   0.480583
     7  H   -0.000079   0.004101  -0.049878  -0.004406   0.428022  -0.027687
     8  Cl  -0.055242   0.285935  -0.042765   0.002700  -0.016043   0.010162
     9  F    0.315711  -0.063120   0.002131   0.000109  -0.000179   0.000007
    10  H    0.459375  -0.099487   0.003803   0.001243  -0.000105   0.000012
              7          8          9         10
     1  C   -0.000079  -0.055242   0.315711   0.459375
     2  C    0.004101   0.285935  -0.063120  -0.099487
     3  C   -0.049878  -0.042765   0.002131   0.003803
     4  H   -0.004406   0.002700   0.000109   0.001243
     5  C    0.428022  -0.016043  -0.000179  -0.000105
     6  H   -0.027687   0.010162   0.000007   0.000012
     7  H    0.495957  -0.000189   0.000001  -0.000032
     8  Cl  -0.000189  16.937935  -0.000694   0.004097
     9  F    0.000001  -0.000694   8.997816  -0.027445
    10  H   -0.000032   0.004097  -0.027445   0.490792
 Mulliken atomic charges:
              1
     1  C    0.097394
     2  C    0.069151
     3  C   -0.169719
     4  H    0.177877
     5  C   -0.309802
     6  H    0.163393
     7  H    0.154191
     8  Cl  -0.125895
     9  F   -0.224336
    10  H    0.167747
 Sum of Mulliken atomic charges =   0.00000
 Mulliken charges with hydrogens summed into heavy atoms:
              1
     1  C    0.265141
     2  C    0.069151
     3  C    0.008157
     5  C    0.007781
     8  Cl  -0.125895
     9  F   -0.224336
 Sum of Mulliken charges with hydrogens summed into heavy atoms =   0.00000
 Electronic spatial extent (au):  <R**2>=            764.7485
 Charge=              0.0000 electrons
 Dipole moment (field-independent basis, Debye):
    X=              1.2517    Y=              2.4741    Z=              0.0000  Tot=              2.7727
 Quadrupole moment (field-independent basis, Debye-Ang):
   XX=            -36.8434   YY=            -41.4202   ZZ=            -44.4686
   XY=              1.8276   XZ=              0.0000   YZ=              0.0000
 Traceless Quadrupole moment (field-independent basis, Debye-Ang):
   XX=              4.0674   YY=             -0.5095   ZZ=             -3.5579
   XY=              1.8276   XZ=              0.0000   YZ=              0.0000
 Octapole moment (field-independent basis, Debye-Ang**2):
  XXX=             11.7922  YYY=             -0.4909  ZZZ=              0.0000  XYY=             -3.7710
  XXY=             -0.8531  XXZ=              0.0000  XZZ=              2.3253  YZZ=            -10.5046
  YYZ=              0.0000  XYZ=              0.0000
 Hexadecapole moment (field-independent basis, Debye-Ang**3):
 XXXX=           -325.1150 YYYY=           -508.3997 ZZZZ=            -48.8853 XXXY=             59.1031
 XXXZ=              0.0000 YYYX=             56.4194 YYYZ=              0.0000 ZZZX=              0.0000
 ZZZY=              0.0000 XXYY=           -147.0950 XXZZ=            -71.0408 YYZZ=           -108.7654
 XXYZ=              0.0000 YYXZ=              0.0000 ZZXY=             17.6586
 N-N= 2.646556380902D+02 E-N=-2.219538620119D+03  KE= 7.121792652024D+02
 Symmetry A'   KE= 6.559994181328D+02
 Symmetry A"   KE= 5.617984706955D+01
 Calling FoFJK, ICntrl=      2127 FMM=F ISym2X=1 I1Cent= 0 IOpClX= 0 NMat=1 NMatS=1 NMatT=0.
 ***** Axes restored to original set *****
 -------------------------------------------------------------------
 Center     Atomic                   Forces (Hartrees/Bohr)
 Number     Number              X              Y              Z
 -------------------------------------------------------------------
      1        6          -0.003832005    0.064072391    0.000000000
      2        6           0.009956601   -0.043411010    0.000000000
      3        6          -0.019379625    0.060827081    0.000000000
      4        1          -0.005934740   -0.005116332    0.000000000
      5        6          -0.022084067   -0.044921152    0.000000000
      6        1           0.003921308    0.001657197    0.000000000
      7        1           0.001561296    0.001992824    0.000000000
      8       17           0.010397425   -0.016914269    0.000000000
      9        9           0.037094877   -0.012920448    0.000000000
     10        1          -0.011701070   -0.005266282    0.000000000
 -------------------------------------------------------------------
 Cartesian Forces:  Max     0.064072391 RMS     0.022265422

 GradGradGradGradGradGradGradGradGradGradGradGradGradGradGradGradGradGrad
 Berny optimization.
 Internal  Forces:  Max     0.050527407 RMS     0.016832085
 Search for a local minimum.
 Step number   1 out of a maximum of   43
 All quantities printed in internal units (Hartrees-Bohrs-Radians)
 Mixed Optimization -- RFO/linear search
 Second derivative matrix not updated -- first step.
     Eigenvalues ---    0.00237   0.01459   0.01463   0.02681   0.02681
     Eigenvalues ---    0.02681   0.02681   0.16000   0.16000   0.16000
     Eigenvalues ---    0.16000   0.22000   0.22000   0.25000   0.25000
     Eigenvalues ---    0.28519   0.29539   0.37230   0.37230   0.37230
     Eigenvalues ---    0.37230   0.53930   0.53930   0.550211000.00000
     Eigenvalues --- 1000.000001000.000001000.000001000.000001000.00000
     Eigenvalues --- 1000.000001000.000001000.00000
 RFO step:  Lambda=-2.34224809D-02 EMin= 2.36824121D-03
 Linear search not attempted -- first point.
 Iteration  1 RMS(Cart)=  0.07122668 RMS(Int)=  0.00201894
 Iteration  2 RMS(Cart)=  0.00291668 RMS(Int)=  0.00000160
 Iteration  3 RMS(Cart)=  0.00000220 RMS(Int)=  0.00000000
 Iteration  4 RMS(Cart)=  0.00000000 RMS(Int)=  0.00000000
 ClnCor:  largest displacement from symmetrization is 2.22D-16 for atom     8.
 Variable       Old X    -DE/DX   Delta X   Delta X   Delta X     New X
                                 (Linear)    (Quad)   (Total)
    R1        2.56096  -0.05053   0.00000  -0.08979  -0.08979   2.47117
    R2        2.55113  -0.03709   0.00000  -0.06467  -0.06467   2.48646
    R3        2.02201  -0.00126   0.00000  -0.00320  -0.00320   2.01881
    R4        2.91018  -0.04192   0.00000  -0.13582  -0.13582   2.77436
    R5        3.32592  -0.01985   0.00000  -0.06225  -0.06225   3.26367
    R6        2.02201   0.00148   0.00000   0.00374   0.00374   2.02574
    R7        2.56096  -0.04402   0.00000  -0.07822  -0.07822   2.48273
    R8        2.02201  -0.00049   0.00000  -0.00124  -0.00124   2.02076
    R9        2.02201   0.00155   0.00000   0.00392   0.00392   2.02592
    A1        2.09241   0.01337   0.00000   0.05492   0.05492   2.14733
    A2        2.09836   0.00623   0.00000   0.04292   0.04292   2.14128
    A3        2.09241  -0.01959   0.00000  -0.09784  -0.09784   1.99457
    A4        2.09241   0.00301   0.00000   0.01100   0.01100   2.10341
    A5        2.09836  -0.00053   0.00000  -0.00193  -0.00193   2.09642
    A6        2.09241  -0.00248   0.00000  -0.00907  -0.00907   2.08335
    A7        2.09241  -0.01736   0.00000  -0.08179  -0.08179   2.01062
    A8        2.09836   0.01917   0.00000   0.07875   0.07875   2.17711
    A9        2.09241  -0.00181   0.00000   0.00304   0.00304   2.09545
   A10        2.09836   0.00435   0.00000   0.02372   0.02372   2.12208
   A11        2.09241  -0.00015   0.00000  -0.00082  -0.00082   2.09159
   A12        2.09241  -0.00420   0.00000  -0.02290  -0.02290   2.06952
    D1        3.14159   0.00000   0.00000   0.00000   0.00000   3.14159
    D2        0.00000   0.00000   0.00000   0.00000   0.00000   0.00000
    D3        0.00000   0.00000   0.00000   0.00000   0.00000   0.00000
    D4        3.14159   0.00000   0.00000   0.00000   0.00000   3.14159
    D5        0.00000   0.00000   0.00000   0.00000   0.00000   0.00000
    D6        3.14159   0.00000   0.00000   0.00000   0.00000   3.14159
    D7        3.14159   0.00000   0.00000   0.00000   0.00000   3.14159
    D8        0.00000   0.00000   0.00000   0.00000   0.00000   0.00000
    D9        0.00000   0.00000   0.00000   0.00000   0.00000   0.00000
   D10        3.14159   0.00000   0.00000   0.00000   0.00000   3.14159
   D11        3.14159   0.00000   0.00000   0.00000   0.00000   3.14159
   D12        0.00000   0.00000   0.00000   0.00000   0.00000   0.00000
         Item               Value     Threshold  Converged?
 Maximum Force            0.050527     0.000450     NO 
 RMS     Force            0.016832     0.000300     NO 
 Maximum Displacement     0.214767     0.001800     NO 
 RMS     Displacement     0.071834     0.001200     NO 
 Predicted change in Energy=-1.252345D-02
 GradGradGradGradGradGradGradGradGradGradGradGradGradGradGradGradGradGrad

                          Input orientation:                          
 ---------------------------------------------------------------------
 Center     Atomic      Atomic             Coordinates (Angstroms)
 Number     Number       Type             X           Y           Z
 ---------------------------------------------------------------------
      1          6           0       -2.061215   -1.661128    0.000000
      2          6           0       -1.426909   -0.517584    0.000000
      3          6           0        0.040715   -0.479145    0.000000
      4          1           0        0.522385   -1.436814    0.000000
      5          6           0        0.760852    0.619713    0.000000
      6          1           0        0.305969    1.587480    0.000000
      7          1           0        1.831038    0.556140    0.000000
      8         17           0       -2.312979    0.964851    0.000000
      9          9           0       -3.373764   -1.753292    0.000000
     10          1           0       -1.554788   -2.601774    0.000000
 ---------------------------------------------------------------------
                    Distance matrix (angstroms):
                    1          2          3          4          5
     1  C    0.000000
     2  C    1.307684   0.000000
     3  C    2.411471   1.468127   0.000000
     4  H    2.593320   2.155163   1.071977   0.000000
     5  C    3.628540   2.465713   1.313806   2.070307   0.000000
     6  H    4.019579   2.726565   2.083578   3.032027   1.069342
     7  H    4.479499   3.430320   2.068108   2.384206   1.072072
     8  Cl   2.638021   1.727059   2.761340   3.715815   3.093147
     9  F    1.315780   2.305910   3.644464   3.908981   4.767201
    10  H    1.068309   2.088110   2.655406   2.381549   3.967388
                    6          7          8          9         10
     6  H    0.000000
     7  H    1.841059   0.000000
     8  Cl   2.691942   4.164123   0.000000
     9  F    4.970029   5.694158   2.917802   0.000000
    10  H    4.583914   4.629928   3.646323   2.007136   0.000000
 Stoichiometry    C4H4ClF
 Framework group  CS[SG(C4H4ClF)]
 Deg. of freedom    17
 Full point group                 CS      NOp   2
 Largest Abelian subgroup         CS      NOp   2
 Largest concise Abelian subgroup C1      NOp   1
                         Standard orientation:                         
 ---------------------------------------------------------------------
 Center     Atomic      Atomic             Coordinates (Angstroms)
 Number     Number       Type             X           Y           Z
 ---------------------------------------------------------------------
      1          6           0       -1.095525    1.016769    0.000000
      2          6           0        0.000000    0.302722    0.000000
      3          6           0        1.315160    0.955217    0.000000
      4          1           0        1.292950    2.026964    0.000000
      5          6           0        2.465647    0.320814    0.000000
      6          1           0        2.516257   -0.747330    0.000000
      7          1           0        3.381811    0.877575    0.000000
      8         17           0       -0.089769   -1.422003    0.000000
      9          9           0       -2.298750    0.484295    0.000000
     10          1           0       -1.087891    2.085051    0.000000
 ---------------------------------------------------------------------
 Rotational constants (GHZ):      4.5816424      2.2062739      1.4891695
 Standard basis: CC-pVTZ (5D, 7F)
 There are   163 symmetry adapted basis functions of A'  symmetry.
 There are    77 symmetry adapted basis functions of A"  symmetry.
 Integral buffers will be    131072 words long.
 Raffenetti 1 integral format.
 Two-electron integral symmetry is turned on.
   240 basis functions,   422 primitive gaussians,   274 cartesian basis functions
    27 alpha electrons       27 beta electrons
       nuclear repulsion energy       270.4971711409 Hartrees.
 NAtoms=   10 NActive=   10 NUniq=   10 SFac= 7.50D-01 NAtFMM=   80 NAOKFM=F Big=F
 One-electron integrals computed using PRISM.
 NBasis=   240 RedAO= T  NBF=   163    77
 NBsUse=   240 1.00D-06 NBFU=   163    77
 Initial guess read from the read-write file.
 B after Tr=     0.000000    0.000000    0.000000
         Rot=    1.000000    0.000000    0.000000    0.000000 Ang=   0.00 deg.
 Initial guess orbital symmetries:
       Occupied  (A') (A') (A') (A') (A') (A') (A') (A') (A") (A')
                 (A') (A') (A') (A') (A') (A') (A') (A') (A") (A')
                 (A') (A') (A') (A") (A') (A") (A")
       Virtual   (A") (A') (A') (A') (A") (A') (A') (A') (A') (A')
                 (A') (A") (A') (A') (A") (A') (A') (A") (A') (A')
                 (A") (A") (A') (A') (A') (A") (A') (A') (A') (A')
                 (A") (A') (A") (A') (A') (A') (A") (A") (A') (A')
                 (A') (A') (A") (A') (A") (A') (A') (A") (A') (A")
                 (A') (A') (A") (A") (A') (A') (A') (A') (A") (A')
                 (A") (A') (A') (A') (A") (A') (A') (A") (A') (A')
                 (A') (A') (A') (A') (A') (A') (A") (A") (A') (A")
                 (A") (A') (A") (A') (A') (A') (A") (A") (A') (A")
                 (A') (A') (A") (A') (A") (A") (A') (A') (A') (A')
                 (A') (A") (A') (A") (A') (A') (A") (A') (A') (A')
                 (A") (A") (A') (A") (A') (A") (A") (A') (A') (A')
                 (A') (A") (A') (A") (A') (A') (A") (A') (A") (A')
                 (A') (A") (A') (A") (A') (A") (A") (A') (A") (A')
                 (A') (A") (A') (A') (A') (A') (A') (A") (A") (A')
                 (A') (A') (A") (A') (A") (A') (A') (A") (A") (A')
                 (A") (A') (A") (A') (A') (A") (A') (A') (A') (A")
                 (A') (A") (A') (A') (A') (A") (A') (A") (A') (A')
                 (A") (A") (A') (A') (A') (A") (A') (A') (A') (A')
                 (A') (A') (A') (A') (A') (A') (A") (A') (A") (A')
                 (A") (A') (A') (A") (A') (A') (A") (A') (A') (A')
                 (A') (A') (A')
 Harris functional with IExCor=  205 diagonalized for initial guess.
 ExpMin= 1.03D-01 ExpMax= 4.56D+05 ExpMxC= 1.44D+03 IAcc=2 IRadAn=         0 AccDes= 0.00D+00
 HarFok:  IExCor=  205 AccDes= 0.00D+00 IRadAn=         0 IDoV= 1
 ScaDFX=  1.000000  1.000000  1.000000  1.000000
 FoFCou: FMM=F IPFlag=           0 FMFlag=      100000 FMFlg1=           0
         NFxFlg=           0 DoJE=T BraDBF=F KetDBF=T FulRan=T
         Omega=  0.000000  0.000000  1.000000  0.000000  0.000000 ICntrl=     500 IOpCl=  0
         NMat0=    1 NMatS0=    1 NMatT0=    0 NMatD0=    1 NMtDS0=    0 NMtDT0=    0
         I1Cent=           4 NGrid=           0.
 Petite list used in FoFCou.
 Requested convergence on RMS density matrix=1.00D-08 within 128 cycles.
 Requested convergence on MAX density matrix=1.00D-06.
 Requested convergence on             energy=1.00D-06.
 No special actions if energy rises.
 Keep R1 ints in memory in canonical form, NReq=720370894.
 SCF Done:  E(RHF) =  -712.797054408     A.U. after   14 cycles
             Convg  =    0.5040D-08             -V/T =  2.0001
 Calling FoFJK, ICntrl=      2127 FMM=F ISym2X=1 I1Cent= 0 IOpClX= 0 NMat=1 NMatS=1 NMatT=0.
 ***** Axes restored to original set *****
 -------------------------------------------------------------------
 Center     Atomic                   Forces (Hartrees/Bohr)
 Number     Number              X              Y              Z
 -------------------------------------------------------------------
      1        6          -0.010593551   -0.002976535    0.000000000
      2        6           0.006854938    0.001420466    0.000000000
      3        6          -0.005399666    0.004735049    0.000000000
      4        1           0.000022794   -0.002228536    0.000000000
      5        6           0.003857975   -0.001659621    0.000000000
      6        1           0.001656993    0.001939152    0.000000000
      7        1           0.000380474    0.001917151    0.000000000
      8       17          -0.001077878    0.001275590    0.000000000
      9        9           0.005232745   -0.002281639    0.000000000
     10        1          -0.000934822   -0.002141077    0.000000000
 -------------------------------------------------------------------
 Cartesian Forces:  Max     0.010593551 RMS     0.003138120

 GradGradGradGradGradGradGradGradGradGradGradGradGradGradGradGradGradGrad
 Berny optimization.
 Using GEDIIS/GDIIS optimizer.
 Internal  Forces:  Max     0.009524265 RMS     0.002868273
 Search for a local minimum.
 Step number   2 out of a maximum of   43
 All quantities printed in internal units (Hartrees-Bohrs-Radians)
 Mixed Optimization -- RFO/linear search
 Update second derivatives using D2CorX and points    1    2
 DE= -1.25D-02 DEPred=-1.25D-02 R= 9.94D-01
 SS=  1.41D+00  RLast= 2.63D-01 DXNew= 5.0454D-01 7.9005D-01
 Trust test= 9.94D-01 RLast= 2.63D-01 DXMaxT set to 5.05D-01
 Use linear search instead of GDIIS.
     Eigenvalues ---    0.00237   0.01468   0.01513   0.02681   0.02681
     Eigenvalues ---    0.02681   0.02681   0.15470   0.16000   0.16000
     Eigenvalues ---    0.16112   0.20390   0.22022   0.24981   0.25005
     Eigenvalues ---    0.28990   0.30259   0.37211   0.37230   0.37230
     Eigenvalues ---    0.37262   0.53536   0.54099   0.618351000.00000
     Eigenvalues --- 1000.000001000.000001000.000001000.000001000.00000
     Eigenvalues --- 1000.000001000.000001000.00000
 RFO step:  Lambda=-8.77371654D-04 EMin= 2.36824121D-03
 Quartic linear search produced a step of  0.01848.
 Iteration  1 RMS(Cart)=  0.02917483 RMS(Int)=  0.00031132
 Iteration  2 RMS(Cart)=  0.00039492 RMS(Int)=  0.00000002
 Iteration  3 RMS(Cart)=  0.00000003 RMS(Int)=  0.00000000
 ClnCor:  largest displacement from symmetrization is 2.49D-11 for atom     7.
 Variable       Old X    -DE/DX   Delta X   Delta X   Delta X     New X
                                 (Linear)    (Quad)   (Total)
    R1        2.47117   0.00952  -0.00166   0.01681   0.01515   2.48631
    R2        2.48646  -0.00506  -0.00120  -0.01018  -0.01137   2.47509
    R3        2.01881   0.00144  -0.00006   0.00390   0.00384   2.02265
    R4        2.77436   0.00064  -0.00251   0.00084  -0.00167   2.77268
    R5        3.26367   0.00165  -0.00115   0.00499   0.00384   3.26751
    R6        2.02574   0.00200   0.00007   0.00550   0.00557   2.03132
    R7        2.48273   0.00507  -0.00145   0.00856   0.00711   2.48985
    R8        2.02076   0.00105  -0.00002   0.00285   0.00283   2.02359
    R9        2.02592   0.00027   0.00007   0.00077   0.00084   2.02677
    A1        2.14733   0.00314   0.00102   0.01500   0.01602   2.16335
    A2        2.14128   0.00028   0.00079   0.00475   0.00554   2.14682
    A3        1.99457  -0.00343  -0.00181  -0.01975  -0.02156   1.97301
    A4        2.10341   0.00096   0.00020   0.00399   0.00419   2.10761
    A5        2.09642  -0.00092  -0.00004  -0.00375  -0.00379   2.09264
    A6        2.08335  -0.00004  -0.00017  -0.00024  -0.00041   2.08294
    A7        2.01062  -0.00467  -0.00151  -0.02390  -0.02541   1.98522
    A8        2.17711   0.00735   0.00146   0.03461   0.03606   2.21317
    A9        2.09545  -0.00268   0.00006  -0.01071  -0.01065   2.08480
   A10        2.12208   0.00182   0.00044   0.01171   0.01215   2.13423
   A11        2.09159   0.00105  -0.00002   0.00664   0.00662   2.09821
   A12        2.06952  -0.00287  -0.00042  -0.01835  -0.01877   2.05075
    D1        3.14159   0.00000   0.00000   0.00000   0.00000   3.14159
    D2        0.00000   0.00000   0.00000   0.00000   0.00000   0.00000
    D3        0.00000   0.00000   0.00000   0.00000   0.00000   0.00000
    D4        3.14159   0.00000   0.00000   0.00000   0.00000   3.14159
    D5        0.00000   0.00000   0.00000   0.00000   0.00000   0.00000
    D6        3.14159   0.00000   0.00000   0.00000   0.00000   3.14159
    D7        3.14159   0.00000   0.00000   0.00000   0.00000   3.14159
    D8        0.00000   0.00000   0.00000   0.00000   0.00000   0.00000
    D9        0.00000   0.00000   0.00000   0.00000   0.00000   0.00000
   D10        3.14159   0.00000   0.00000   0.00000   0.00000   3.14159
   D11        3.14159   0.00000   0.00000   0.00000   0.00000   3.14159
   D12        0.00000   0.00000   0.00000   0.00000   0.00000   0.00000
         Item               Value     Threshold  Converged?
 Maximum Force            0.009524     0.000450     NO 
 RMS     Force            0.002868     0.000300     NO 
 Maximum Displacement     0.099128     0.001800     NO 
 RMS     Displacement     0.029126     0.001200     NO 
 Predicted change in Energy=-4.505733D-04
 GradGradGradGradGradGradGradGradGradGradGradGradGradGradGradGradGradGrad

                          Input orientation:                          
 ---------------------------------------------------------------------
 Center     Atomic      Atomic             Coordinates (Angstroms)
 Number     Number       Type             X           Y           Z
 ---------------------------------------------------------------------
      1          6           0       -2.067969   -1.667790    0.000000
      2          6           0       -1.437839   -0.512798    0.000000
      3          6           0        0.028377   -0.457972    0.000000
      4          1           0        0.497669   -1.425046    0.000000
      5          6           0        0.777760    0.625732    0.000000
      6          1           0        0.358425    1.611051    0.000000
      7          1           0        1.847052    0.542605    0.000000
      8         17           0       -2.340907    0.961727    0.000000
      9          9           0       -3.372056   -1.789578    0.000000
     10          1           0       -1.559206   -2.609485    0.000000
 ---------------------------------------------------------------------
                    Distance matrix (angstroms):
                    1          2          3          4          5
     1  C    0.000000
     2  C    1.315701   0.000000
     3  C    2.420397   1.467241   0.000000
     4  H    2.577095   2.139717   1.074927   0.000000
     5  C    3.654916   2.491010   1.317570   2.069817   0.000000
     6  H    4.078993   2.781600   2.095182   3.039288   1.070838
     7  H    4.495913   3.450273   2.075749   2.385893   1.072519
     8  Cl   2.643645   1.729092   2.762074   3.708666   3.136714
     9  F    1.309762   2.317620   3.651865   3.886857   4.801531
    10  H    1.070340   2.100196   2.673841   2.373527   3.990995
                    6          7          8          9         10
     6  H    0.000000
     7  H    1.832372   0.000000
     8  Cl   2.776331   4.208879   0.000000
     9  F    5.047848   5.716482   2.938189   0.000000
    10  H    4.635756   4.640934   3.655764   1.989641   0.000000
 Stoichiometry    C4H4ClF
 Framework group  CS[SG(C4H4ClF)]
 Deg. of freedom    17
 Full point group                 CS      NOp   2
 Largest Abelian subgroup         CS      NOp   2
 Largest concise Abelian subgroup C1      NOp   1
                         Standard orientation:                         
 ---------------------------------------------------------------------
 Center     Atomic      Atomic             Coordinates (Angstroms)
 Number     Number       Type             X           Y           Z
 ---------------------------------------------------------------------
      1          6           0       -1.103542    1.010638    0.000000
      2          6           0        0.000000    0.294214    0.000000
      3          6           0        1.315915    0.943184    0.000000
      4          1           0        1.268901    2.017082    0.000000
      5          6           0        2.490468    0.346179    0.000000
      6          1           0        2.590105   -0.720014    0.000000
      7          1           0        3.391607    0.927767    0.000000
      8         17           0       -0.093284   -1.432360    0.000000
      9          9           0       -2.308673    0.497668    0.000000
     10          1           0       -1.103765    2.080978    0.000000
 ---------------------------------------------------------------------
 Rotational constants (GHZ):      4.5399553      2.1778422      1.4718077
 Standard basis: CC-pVTZ (5D, 7F)
 There are   163 symmetry adapted basis functions of A'  symmetry.
 There are    77 symmetry adapted basis functions of A"  symmetry.
 Integral buffers will be    131072 words long.
 Raffenetti 1 integral format.
 Two-electron integral symmetry is turned on.
   240 basis functions,   422 primitive gaussians,   274 cartesian basis functions
    27 alpha electrons       27 beta electrons
       nuclear repulsion energy       269.4921457612 Hartrees.
 NAtoms=   10 NActive=   10 NUniq=   10 SFac= 7.50D-01 NAtFMM=   80 NAOKFM=F Big=F
 One-electron integrals computed using PRISM.
 NBasis=   240 RedAO= T  NBF=   163    77
 NBsUse=   240 1.00D-06 NBFU=   163    77
 Initial guess read from the read-write file.
 B after Tr=     0.000000    0.000000    0.000000
         Rot=    1.000000    0.000000    0.000000    0.000000 Ang=   0.00 deg.
 Initial guess orbital symmetries:
       Occupied  (A') (A') (A') (A') (A') (A') (A') (A') (A') (A")
                 (A') (A') (A') (A') (A') (A') (A') (A') (A") (A')
                 (A') (A') (A") (A') (A') (A") (A")
       Virtual   (A") (A') (A') (A') (A") (A') (A') (A') (A') (A')
                 (A') (A") (A') (A') (A") (A') (A') (A") (A') (A')
                 (A") (A") (A') (A') (A") (A') (A') (A') (A') (A')
                 (A") (A") (A') (A') (A') (A") (A') (A") (A') (A')
                 (A') (A') (A") (A') (A") (A') (A') (A") (A') (A')
                 (A") (A") (A') (A") (A') (A') (A') (A") (A') (A')
                 (A") (A') (A') (A') (A") (A') (A') (A") (A') (A')
                 (A') (A') (A') (A') (A') (A') (A") (A") (A') (A")
                 (A') (A") (A") (A') (A') (A') (A") (A') (A") (A")
                 (A') (A') (A") (A') (A") (A") (A') (A') (A') (A')
                 (A') (A") (A') (A") (A') (A') (A") (A') (A') (A')
                 (A") (A") (A') (A") (A') (A") (A") (A') (A') (A')
                 (A") (A') (A") (A') (A') (A") (A') (A") (A') (A")
                 (A') (A') (A') (A") (A") (A') (A") (A") (A') (A')
                 (A') (A") (A') (A') (A') (A') (A') (A") (A") (A')
                 (A') (A') (A") (A') (A") (A') (A") (A") (A') (A')
                 (A") (A') (A") (A') (A') (A') (A") (A') (A') (A")
                 (A') (A") (A') (A') (A") (A') (A") (A') (A') (A")
                 (A') (A") (A') (A') (A") (A') (A') (A') (A') (A')
                 (A') (A') (A') (A') (A') (A') (A") (A') (A") (A')
                 (A") (A') (A') (A") (A') (A") (A') (A') (A') (A')
                 (A') (A') (A')
 Harris functional with IExCor=  205 diagonalized for initial guess.
 ExpMin= 1.03D-01 ExpMax= 4.56D+05 ExpMxC= 1.44D+03 IAcc=2 IRadAn=         0 AccDes= 0.00D+00
 HarFok:  IExCor=  205 AccDes= 0.00D+00 IRadAn=         0 IDoV= 1
 ScaDFX=  1.000000  1.000000  1.000000  1.000000
 FoFCou: FMM=F IPFlag=           0 FMFlag=      100000 FMFlg1=           0
         NFxFlg=           0 DoJE=T BraDBF=F KetDBF=T FulRan=T
         Omega=  0.000000  0.000000  1.000000  0.000000  0.000000 ICntrl=     500 IOpCl=  0
         NMat0=    1 NMatS0=    1 NMatT0=    0 NMatD0=    1 NMtDS0=    0 NMtDT0=    0
         I1Cent=           4 NGrid=           0.
 Petite list used in FoFCou.
 Requested convergence on RMS density matrix=1.00D-08 within 128 cycles.
 Requested convergence on MAX density matrix=1.00D-06.
 Requested convergence on             energy=1.00D-06.
 No special actions if energy rises.
 Keep R1 ints in memory in canonical form, NReq=720370894.
 SCF Done:  E(RHF) =  -712.797410669     A.U. after   10 cycles
             Convg  =    0.8876D-08             -V/T =  2.0001
 Calling FoFJK, ICntrl=      2127 FMM=F ISym2X=1 I1Cent= 0 IOpClX= 0 NMat=1 NMatS=1 NMatT=0.
 ***** Axes restored to original set *****
 -------------------------------------------------------------------
 Center     Atomic                   Forces (Hartrees/Bohr)
 Number     Number              X              Y              Z
 -------------------------------------------------------------------
      1        6           0.000219894    0.000193266    0.000000000
      2        6           0.000378944   -0.002046171    0.000000000
      3        6          -0.000295150    0.000664319    0.000000000
      4        1           0.000482780   -0.000233277    0.000000000
      5        6          -0.001469864   -0.001813350    0.000000000
      6        1          -0.000107245    0.000631786    0.000000000
      7        1          -0.000148400    0.000059555    0.000000000
      8       17          -0.000338715    0.000994394    0.000000000
      9        9           0.000267082    0.001299299    0.000000000
     10        1           0.001010673    0.000250179    0.000000000
 -------------------------------------------------------------------
 Cartesian Forces:  Max     0.002046171 RMS     0.000708617

 GradGradGradGradGradGradGradGradGradGradGradGradGradGradGradGradGradGrad
 Berny optimization.
 Using GEDIIS/GDIIS optimizer.
 Internal  Forces:  Max     0.002247145 RMS     0.000808009
 Search for a local minimum.
 Step number   3 out of a maximum of   43
 All quantities printed in internal units (Hartrees-Bohrs-Radians)
 Mixed Optimization -- En-DIIS/RFO-DIIS
 Update second derivatives using D2CorX and points    1    2    3
 DE= -3.56D-04 DEPred=-4.51D-04 R= 7.91D-01
 SS=  1.41D+00  RLast= 6.22D-02 DXNew= 8.4853D-01 1.8661D-01
 Trust test= 7.91D-01 RLast= 6.22D-02 DXMaxT set to 5.05D-01
 Use linear search instead of GDIIS.
     Eigenvalues ---    0.00237   0.01466   0.01520   0.02681   0.02681
     Eigenvalues ---    0.02681   0.02681   0.15262   0.16000   0.16016
     Eigenvalues ---    0.16683   0.21147   0.22933   0.24959   0.25158
     Eigenvalues ---    0.29583   0.30279   0.36931   0.37230   0.37234
     Eigenvalues ---    0.37267   0.52586   0.54066   0.662751000.00000
     Eigenvalues --- 1000.000001000.000001000.000001000.000001000.00000
     Eigenvalues --- 1000.000001000.000001000.00000
 RFO step:  Lambda=-2.81334464D-05 EMin= 2.36824121D-03
 Quartic linear search produced a step of -0.16319.
 Iteration  1 RMS(Cart)=  0.00527394 RMS(Int)=  0.00001078
 Iteration  2 RMS(Cart)=  0.00001215 RMS(Int)=  0.00000000
 Iteration  3 RMS(Cart)=  0.00000000 RMS(Int)=  0.00000000
 ClnCor:  largest displacement from symmetrization is 1.32D-12 for atom    10.
 Variable       Old X    -DE/DX   Delta X   Delta X   Delta X     New X
                                 (Linear)    (Quad)   (Total)
    R1        2.48631  -0.00225  -0.00247  -0.00019  -0.00266   2.48365
    R2        2.47509  -0.00039   0.00186  -0.00258  -0.00073   2.47436
    R3        2.02265   0.00026  -0.00063   0.00135   0.00073   2.02338
    R4        2.77268  -0.00156   0.00027  -0.00444  -0.00417   2.76852
    R5        3.26751   0.00102  -0.00063   0.00390   0.00328   3.27079
    R6        2.03132   0.00042  -0.00091   0.00203   0.00112   2.03244
    R7        2.48985  -0.00190  -0.00116  -0.00128  -0.00244   2.48741
    R8        2.02359   0.00062  -0.00046   0.00197   0.00151   2.02510
    R9        2.02677  -0.00015  -0.00014  -0.00019  -0.00033   2.02643
    A1        2.16335  -0.00141  -0.00261  -0.00250  -0.00512   2.15823
    A2        2.14682  -0.00031  -0.00090  -0.00176  -0.00266   2.14416
    A3        1.97301   0.00173   0.00352   0.00426   0.00778   1.98079
    A4        2.10761   0.00019  -0.00068   0.00142   0.00073   2.10834
    A5        2.09264   0.00028   0.00062   0.00022   0.00084   2.09347
    A6        2.08294  -0.00047   0.00007  -0.00163  -0.00157   2.08137
    A7        1.98522   0.00103   0.00415  -0.00020   0.00395   1.98916
    A8        2.21317  -0.00139  -0.00589   0.00141  -0.00447   2.20870
    A9        2.08480   0.00036   0.00174  -0.00121   0.00053   2.08532
   A10        2.13423   0.00017  -0.00198   0.00314   0.00116   2.13539
   A11        2.09821  -0.00004  -0.00108   0.00109   0.00001   2.09822
   A12        2.05075  -0.00013   0.00306  -0.00423  -0.00117   2.04957
    D1        3.14159   0.00000   0.00000   0.00000   0.00000   3.14159
    D2        0.00000   0.00000   0.00000   0.00000   0.00000   0.00000
    D3        0.00000   0.00000   0.00000   0.00000   0.00000   0.00000
    D4        3.14159   0.00000   0.00000   0.00000   0.00000   3.14159
    D5        0.00000   0.00000   0.00000   0.00000   0.00000   0.00000
    D6        3.14159   0.00000   0.00000   0.00000   0.00000   3.14159
    D7        3.14159   0.00000   0.00000   0.00000   0.00000   3.14159
    D8        0.00000   0.00000   0.00000   0.00000   0.00000   0.00000
    D9        0.00000   0.00000   0.00000   0.00000   0.00000   0.00000
   D10        3.14159   0.00000   0.00000   0.00000   0.00000   3.14159
   D11        3.14159   0.00000   0.00000   0.00000   0.00000   3.14159
   D12        0.00000   0.00000   0.00000   0.00000   0.00000   0.00000
         Item               Value     Threshold  Converged?
 Maximum Force            0.002247     0.000450     NO 
 RMS     Force            0.000808     0.000300     NO 
 Maximum Displacement     0.016362     0.001800     NO 
 RMS     Displacement     0.005277     0.001200     NO 
 Predicted change in Energy=-2.764890D-05
 GradGradGradGradGradGradGradGradGradGradGradGradGradGradGradGradGradGrad

                          Input orientation:                          
 ---------------------------------------------------------------------
 Center     Atomic      Atomic             Coordinates (Angstroms)
 Number     Number       Type             X           Y           Z
 ---------------------------------------------------------------------
      1          6           0       -2.066647   -1.667839    0.000000
      2          6           0       -1.435425   -0.515049    0.000000
      3          6           0        0.028632   -0.461479    0.000000
      4          1           0        0.501225   -1.427604    0.000000
      5          6           0        0.773300    0.623907    0.000000
      6          1           0        0.351176    1.608902    0.000000
      7          1           0        1.842716    0.544731    0.000000
      8         17           0       -2.335899    0.963093    0.000000
      9          9           0       -3.371132   -1.780920    0.000000
     10          1           0       -1.556640   -2.609298    0.000000
 ---------------------------------------------------------------------
                    Distance matrix (angstroms):
                    1          2          3          4          5
     1  C    0.000000
     2  C    1.314293   0.000000
     3  C    2.417747   1.465037   0.000000
     4  H    2.579085   2.140881   1.075519   0.000000
     5  C    3.649301   2.485092   1.316279   2.069473   0.000000
     6  H    4.072211   2.775448   2.095355   3.040211   1.071636
     7  H    4.492058   3.445191   2.074454   2.385309   1.072343
     8  Cl   2.644674   1.730826   2.760510   3.710082   3.127645
     9  F    1.309378   2.312875   3.646824   3.888443   4.791608
    10  H    1.070725   2.097754   2.669497   2.373017   3.985252
                    6          7          8          9         10
     6  H    0.000000
     7  H    1.832253   0.000000
     8  Cl   2.763592   4.199506   0.000000
     9  F    5.034528   5.709016   2.932800   0.000000
    10  H    4.629576   4.637189   3.656395   1.994641   0.000000
 Stoichiometry    C4H4ClF
 Framework group  CS[SG(C4H4ClF)]
 Deg. of freedom    17
 Full point group                 CS      NOp   2
 Largest Abelian subgroup         CS      NOp   2
 Largest concise Abelian subgroup C1      NOp   1
                         Standard orientation:                         
 ---------------------------------------------------------------------
 Center     Atomic      Atomic             Coordinates (Angstroms)
 Number     Number       Type             X           Y           Z
 ---------------------------------------------------------------------
      1          6           0       -1.101531    1.014390    0.000000
      2          6           0        0.000000    0.297455    0.000000
      3          6           0        1.315160    0.942968    0.000000
      4          1           0        1.274394    2.017714    0.000000
      5          6           0        2.484744    0.339093    0.000000
      6          1           0        2.578902   -0.728399    0.000000
      7          1           0        3.389423    0.914831    0.000000
      8         17           0       -0.093934   -1.430820    0.000000
      9          9           0       -2.304268    0.496805    0.000000
     10          1           0       -1.097667    2.085107    0.000000
 ---------------------------------------------------------------------
 Rotational constants (GHZ):      4.5450609      2.1859152      1.4760293
 Standard basis: CC-pVTZ (5D, 7F)
 There are   163 symmetry adapted basis functions of A'  symmetry.
 There are    77 symmetry adapted basis functions of A"  symmetry.
 Integral buffers will be    131072 words long.
 Raffenetti 1 integral format.
 Two-electron integral symmetry is turned on.
   240 basis functions,   422 primitive gaussians,   274 cartesian basis functions
    27 alpha electrons       27 beta electrons
       nuclear repulsion energy       269.7247370268 Hartrees.
 NAtoms=   10 NActive=   10 NUniq=   10 SFac= 7.50D-01 NAtFMM=   80 NAOKFM=F Big=F
 One-electron integrals computed using PRISM.
 NBasis=   240 RedAO= T  NBF=   163    77
 NBsUse=   240 1.00D-06 NBFU=   163    77
 Initial guess read from the read-write file.
 B after Tr=     0.000000    0.000000    0.000000
         Rot=    1.000000    0.000000    0.000000    0.000000 Ang=   0.00 deg.
 Initial guess orbital symmetries:
       Occupied  (A') (A') (A') (A') (A') (A') (A') (A') (A') (A")
                 (A') (A') (A') (A') (A') (A') (A') (A") (A') (A')
                 (A') (A') (A") (A') (A') (A") (A")
       Virtual   (A") (A') (A') (A') (A") (A') (A') (A') (A') (A')
                 (A') (A") (A') (A') (A") (A') (A') (A") (A') (A')
                 (A") (A") (A') (A') (A") (A') (A') (A') (A') (A')
                 (A") (A") (A') (A') (A') (A") (A') (A") (A') (A')
                 (A') (A') (A") (A') (A") (A') (A') (A") (A') (A')
                 (A") (A") (A') (A") (A') (A') (A') (A") (A') (A")
                 (A') (A') (A') (A') (A') (A") (A') (A") (A') (A')
                 (A') (A') (A') (A') (A') (A') (A") (A") (A') (A")
                 (A') (A") (A") (A') (A') (A') (A") (A') (A") (A')
                 (A") (A') (A") (A") (A') (A") (A') (A') (A') (A')
                 (A') (A") (A') (A") (A') (A') (A") (A') (A') (A')
                 (A") (A") (A') (A") (A') (A") (A") (A') (A') (A')
                 (A") (A") (A') (A') (A') (A") (A') (A") (A') (A")
                 (A') (A') (A') (A") (A") (A') (A") (A") (A') (A')
                 (A') (A") (A') (A') (A') (A') (A') (A") (A") (A')
                 (A') (A') (A") (A') (A") (A') (A") (A") (A') (A')
                 (A") (A") (A') (A') (A') (A') (A") (A') (A') (A")
                 (A') (A') (A") (A') (A") (A') (A") (A') (A') (A")
                 (A') (A") (A') (A') (A") (A') (A') (A') (A') (A')
                 (A') (A') (A') (A') (A') (A') (A") (A') (A") (A')
                 (A") (A') (A') (A") (A') (A") (A') (A') (A') (A')
                 (A') (A') (A')
 Requested convergence on RMS density matrix=1.00D-08 within 128 cycles.
 Requested convergence on MAX density matrix=1.00D-06.
 Requested convergence on             energy=1.00D-06.
 No special actions if energy rises.
 Keep R1 ints in memory in canonical form, NReq=720370894.
 SCF Done:  E(RHF) =  -712.797438909     A.U. after    9 cycles
             Convg  =    0.4550D-08             -V/T =  2.0001
 Calling FoFJK, ICntrl=      2127 FMM=F ISym2X=1 I1Cent= 0 IOpClX= 0 NMat=1 NMatS=1 NMatT=0.
 ***** Axes restored to original set *****
 -------------------------------------------------------------------
 Center     Atomic                   Forces (Hartrees/Bohr)
 Number     Number              X              Y              Z
 -------------------------------------------------------------------
      1        6          -0.000400467    0.000050236    0.000000000
      2        6           0.000114474   -0.000415760    0.000000000
      3        6           0.000138527   -0.000026434    0.000000000
      4        1           0.000098455    0.000104740    0.000000000
      5        6          -0.000057505   -0.000021745    0.000000000
      6        1           0.000083856   -0.000033521    0.000000000
      7        1           0.000045986    0.000078553    0.000000000
      8       17          -0.000116881    0.000136878    0.000000000
      9        9           0.000008725   -0.000019683    0.000000000
     10        1           0.000084830    0.000146736    0.000000000
 -------------------------------------------------------------------
 Cartesian Forces:  Max     0.000415760 RMS     0.000125329

 GradGradGradGradGradGradGradGradGradGradGradGradGradGradGradGradGradGrad
 Berny optimization.
 Using GEDIIS/GDIIS optimizer.
 Internal  Forces:  Max     0.000327030 RMS     0.000115111
 Search for a local minimum.
 Step number   4 out of a maximum of   43
 All quantities printed in internal units (Hartrees-Bohrs-Radians)
 Mixed Optimization -- En-DIIS/RFO-DIIS
 Swaping is turned off.
 Update second derivatives using D2CorX and points    1    2    3    4
 DE= -2.82D-05 DEPred=-2.76D-05 R= 1.02D+00
 SS=  1.41D+00  RLast= 1.35D-02 DXNew= 8.4853D-01 4.0454D-02
 Trust test= 1.02D+00 RLast= 1.35D-02 DXMaxT set to 5.05D-01
     Eigenvalues ---    0.00237   0.01467   0.01518   0.02681   0.02681
     Eigenvalues ---    0.02681   0.02681   0.14760   0.15813   0.16002
     Eigenvalues ---    0.16109   0.21256   0.22969   0.24224   0.25207
     Eigenvalues ---    0.29355   0.32173   0.37140   0.37230   0.37233
     Eigenvalues ---    0.37754   0.52837   0.54077   0.668721000.00000
     Eigenvalues --- 1000.000001000.000001000.000001000.000001000.00000
     Eigenvalues --- 1000.000001000.000001000.00000
 En-DIIS/RFO-DIIS IScMMF=        0 using points:     4    3
 RFO step:  Lambda=-8.89130038D-07.
 DIIS coeffs:      1.01032     -0.01032
 Iteration  1 RMS(Cart)=  0.00103237 RMS(Int)=  0.00000046
 Iteration  2 RMS(Cart)=  0.00000057 RMS(Int)=  0.00000000
 ClnCor:  largest displacement from symmetrization is 1.35D-12 for atom     9.
 Variable       Old X    -DE/DX   Delta X   Delta X   Delta X     New X
                                  (DIIS)     (GDIIS)  (Total)
    R1        2.48365  -0.00001  -0.00003  -0.00013  -0.00016   2.48350
    R2        2.47436  -0.00001  -0.00001  -0.00006  -0.00007   2.47429
    R3        2.02338  -0.00009   0.00001  -0.00022  -0.00021   2.02316
    R4        2.76852   0.00031  -0.00004   0.00091   0.00087   2.76939
    R5        3.27079   0.00018   0.00003   0.00067   0.00070   3.27149
    R6        2.03244  -0.00005   0.00001  -0.00010  -0.00009   2.03235
    R7        2.48741   0.00006  -0.00003   0.00001  -0.00002   2.48739
    R8        2.02510  -0.00006   0.00002  -0.00013  -0.00012   2.02498
    R9        2.02643   0.00004   0.00000   0.00010   0.00010   2.02653
    A1        2.15823   0.00013  -0.00005   0.00049   0.00044   2.15867
    A2        2.14416  -0.00021  -0.00003  -0.00126  -0.00129   2.14287
    A3        1.98079   0.00008   0.00008   0.00077   0.00085   1.98164
    A4        2.10834   0.00033   0.00001   0.00135   0.00136   2.10969
    A5        2.09347  -0.00021   0.00001  -0.00083  -0.00082   2.09265
    A6        2.08137  -0.00012  -0.00002  -0.00052  -0.00054   2.08084
    A7        1.98916   0.00016   0.00004   0.00100   0.00104   1.99021
    A8        2.20870  -0.00004  -0.00005  -0.00025  -0.00029   2.20840
    A9        2.08532  -0.00012   0.00001  -0.00075  -0.00075   2.08458
   A10        2.13539   0.00003   0.00001   0.00025   0.00026   2.13565
   A11        2.09822   0.00007   0.00000   0.00042   0.00042   2.09865
   A12        2.04957  -0.00010  -0.00001  -0.00067  -0.00068   2.04889
    D1        3.14159   0.00000   0.00000   0.00000   0.00000   3.14159
    D2        0.00000   0.00000   0.00000   0.00000   0.00000   0.00000
    D3        0.00000   0.00000   0.00000   0.00000   0.00000   0.00000
    D4        3.14159   0.00000   0.00000   0.00000   0.00000   3.14159
    D5        0.00000   0.00000   0.00000   0.00000   0.00000   0.00000
    D6        3.14159   0.00000   0.00000   0.00000   0.00000   3.14159
    D7        3.14159   0.00000   0.00000   0.00000   0.00000   3.14159
    D8        0.00000   0.00000   0.00000   0.00000   0.00000   0.00000
    D9        0.00000   0.00000   0.00000   0.00000   0.00000   0.00000
   D10        3.14159   0.00000   0.00000   0.00000   0.00000   3.14159
   D11        3.14159   0.00000   0.00000   0.00000   0.00000   3.14159
   D12        0.00000   0.00000   0.00000   0.00000   0.00000   0.00000
         Item               Value     Threshold  Converged?
 Maximum Force            0.000327     0.000450     YES
 RMS     Force            0.000115     0.000300     YES
 Maximum Displacement     0.003608     0.001800     NO 
 RMS     Displacement     0.001032     0.001200     YES
 Predicted change in Energy=-9.371149D-07
 GradGradGradGradGradGradGradGradGradGradGradGradGradGradGradGradGradGrad

                          Input orientation:                          
 ---------------------------------------------------------------------
 Center     Atomic      Atomic             Coordinates (Angstroms)
 Number     Number       Type             X           Y           Z
 ---------------------------------------------------------------------
      1          6           0       -2.067631   -1.667999    0.000000
      2          6           0       -1.435238   -0.515945    0.000000
      3          6           0        0.029262   -0.461911    0.000000
      4          1           0        0.503134   -1.427356    0.000000
      5          6           0        0.773276    0.623912    0.000000
      6          1           0        0.350842    1.608709    0.000000
      7          1           0        1.842824    0.545828    0.000000
      8         17           0       -2.335561    0.962723    0.000000
      9          9           0       -3.372148   -1.780280    0.000000
     10          1           0       -1.557454   -2.609237    0.000000
 ---------------------------------------------------------------------
                    Distance matrix (angstroms):
                    1          2          3          4          5
     1  C    0.000000
     2  C    1.314211   0.000000
     3  C    2.419010   1.465497   0.000000
     4  H    2.582004   2.141952   1.075471   0.000000
     5  C    3.650152   2.485318   1.316271   2.068980   0.000000
     6  H    4.072570   2.775650   2.095443   3.039881   1.071575
     7  H    4.493627   3.445729   2.074739   2.384999   1.072395
     8  Cl   2.644331   1.731196   2.760792   3.710885   3.127244
     9  F    1.309340   2.313042   3.647970   3.891320   4.792148
    10  H    1.070612   2.096857   2.669958   2.375472   3.985669
                    6          7          8          9         10
     6  H    0.000000
     7  H    1.831864   0.000000
     8  Cl   2.762980   4.199131   0.000000
     9  F    5.034471   5.710228   2.932334   0.000000
    10  H    4.629542   4.638569   3.655728   1.995065   0.000000
 Stoichiometry    C4H4ClF
 Framework group  CS[SG(C4H4ClF)]
 Deg. of freedom    17
 Full point group                 CS      NOp   2
 Largest Abelian subgroup         CS      NOp   2
 Largest concise Abelian subgroup C1      NOp   1
                         Standard orientation:                         
 ---------------------------------------------------------------------
 Center     Atomic      Atomic             Coordinates (Angstroms)
 Number     Number       Type             X           Y           Z
 ---------------------------------------------------------------------
      1          6           0       -1.101909    1.014433    0.000000
      2          6           0        0.000000    0.298231    0.000000
      3          6           0        1.316045    0.942984    0.000000
      4          1           0        1.277186    2.017752    0.000000
      5          6           0        2.485001    0.337914    0.000000
      6          1           0        2.578337   -0.729589    0.000000
      7          1           0        3.390558    0.912367    0.000000
      8         17           0       -0.094289   -1.430395    0.000000
      9          9           0       -2.304517    0.496643    0.000000
     10          1           0       -1.097333    2.085035    0.000000
 ---------------------------------------------------------------------
 Rotational constants (GHZ):      4.5471603      2.1850777      1.4758686
 Standard basis: CC-pVTZ (5D, 7F)
 There are   163 symmetry adapted basis functions of A'  symmetry.
 There are    77 symmetry adapted basis functions of A"  symmetry.
 Integral buffers will be    131072 words long.
 Raffenetti 1 integral format.
 Two-electron integral symmetry is turned on.
   240 basis functions,   422 primitive gaussians,   274 cartesian basis functions
    27 alpha electrons       27 beta electrons
       nuclear repulsion energy       269.7101672744 Hartrees.
 NAtoms=   10 NActive=   10 NUniq=   10 SFac= 7.50D-01 NAtFMM=   80 NAOKFM=F Big=F
 One-electron integrals computed using PRISM.
 NBasis=   240 RedAO= T  NBF=   163    77
 NBsUse=   240 1.00D-06 NBFU=   163    77
 Initial guess read from the read-write file.
 B after Tr=     0.000000    0.000000    0.000000
         Rot=    1.000000    0.000000    0.000000    0.000000 Ang=   0.00 deg.
 Initial guess orbital symmetries:
       Occupied  (A') (A') (A') (A') (A') (A') (A') (A') (A') (A")
                 (A') (A') (A') (A') (A') (A') (A') (A") (A') (A')
                 (A') (A') (A") (A') (A') (A") (A")
       Virtual   (A") (A') (A') (A') (A") (A') (A') (A') (A') (A')
                 (A') (A") (A') (A') (A") (A') (A') (A") (A') (A')
                 (A") (A") (A') (A') (A") (A') (A') (A') (A') (A')
                 (A") (A") (A') (A') (A') (A") (A') (A") (A') (A')
                 (A') (A') (A") (A') (A") (A') (A') (A") (A') (A')
                 (A") (A") (A') (A") (A') (A') (A') (A") (A') (A")
                 (A') (A') (A') (A') (A') (A") (A') (A") (A') (A')
                 (A') (A') (A') (A') (A') (A') (A") (A") (A') (A")
                 (A') (A") (A") (A') (A') (A') (A") (A') (A") (A')
                 (A") (A') (A") (A') (A") (A") (A') (A') (A') (A')
                 (A') (A") (A') (A") (A') (A') (A") (A') (A') (A')
                 (A") (A") (A') (A") (A') (A") (A") (A') (A') (A')
                 (A") (A') (A") (A') (A') (A") (A') (A") (A') (A")
                 (A') (A') (A') (A") (A") (A') (A") (A") (A') (A')
                 (A') (A") (A') (A') (A') (A') (A') (A") (A") (A')
                 (A') (A') (A") (A') (A") (A') (A") (A") (A') (A')
                 (A") (A") (A') (A') (A') (A') (A") (A') (A') (A")
                 (A') (A') (A") (A') (A") (A') (A") (A') (A') (A")
                 (A') (A") (A') (A') (A") (A') (A') (A') (A') (A')
                 (A') (A') (A') (A') (A') (A') (A") (A') (A") (A')
                 (A") (A') (A') (A") (A') (A") (A') (A') (A') (A')
                 (A') (A') (A')
 Requested convergence on RMS density matrix=1.00D-08 within 128 cycles.
 Requested convergence on MAX density matrix=1.00D-06.
 Requested convergence on             energy=1.00D-06.
 No special actions if energy rises.
 Keep R1 ints in memory in canonical form, NReq=720370894.
 SCF Done:  E(RHF) =  -712.797439890     A.U. after    7 cycles
             Convg  =    0.8997D-08             -V/T =  2.0001
 Calling FoFJK, ICntrl=      2127 FMM=F ISym2X=1 I1Cent= 0 IOpClX= 0 NMat=1 NMatS=1 NMatT=0.
 ***** Axes restored to original set *****
 -------------------------------------------------------------------
 Center     Atomic                   Forces (Hartrees/Bohr)
 Number     Number              X              Y              Z
 -------------------------------------------------------------------
      1        6          -0.000148745    0.000015858    0.000000000
      2        6           0.000171492   -0.000063442    0.000000000
      3        6          -0.000072007   -0.000046033    0.000000000
      4        1          -0.000012398    0.000011312    0.000000000
      5        6          -0.000016067    0.000055099    0.000000000
      6        1           0.000022822   -0.000005344    0.000000000
      7        1           0.000006768    0.000004803    0.000000000
      8       17          -0.000034657    0.000071884    0.000000000
      9        9           0.000082358   -0.000025762    0.000000000
     10        1           0.000000434   -0.000018373    0.000000000
 -------------------------------------------------------------------
 Cartesian Forces:  Max     0.000171492 RMS     0.000052109

 GradGradGradGradGradGradGradGradGradGradGradGradGradGradGradGradGradGrad
 Berny optimization.
 Using GEDIIS/GDIIS optimizer.
 Internal  Forces:  Max     0.000079847 RMS     0.000030931
 Search for a local minimum.
 Step number   5 out of a maximum of   43
 All quantities printed in internal units (Hartrees-Bohrs-Radians)
 Mixed Optimization -- En-DIIS/RFO-DIIS
 Swaping is turned off.
 Update second derivatives using D2CorX and points    1    2    3    4    5
 DE= -9.81D-07 DEPred=-9.37D-07 R= 1.05D+00
 Trust test= 1.05D+00 RLast= 3.03D-03 DXMaxT set to 5.05D-01
     Eigenvalues ---    0.00237   0.01467   0.01517   0.02681   0.02681
     Eigenvalues ---    0.02681   0.02681   0.13478   0.15944   0.16103
     Eigenvalues ---    0.16334   0.20732   0.22029   0.23664   0.25156
     Eigenvalues ---    0.29110   0.34620   0.37160   0.37226   0.37337
     Eigenvalues ---    0.38459   0.53126   0.54007   0.672721000.00000
     Eigenvalues --- 1000.000001000.000001000.000001000.000001000.00000
     Eigenvalues --- 1000.000001000.000001000.00000
 En-DIIS/RFO-DIIS IScMMF=        0 using points:     5    4    3
 RFO step:  Lambda=-5.78228396D-08.
 DIIS coeffs:      1.04883     -0.04728     -0.00155
 Iteration  1 RMS(Cart)=  0.00015758 RMS(Int)=  0.00000001
 Iteration  2 RMS(Cart)=  0.00000002 RMS(Int)=  0.00000000
 ClnCor:  largest displacement from symmetrization is 2.26D-13 for atom     9.
 Variable       Old X    -DE/DX   Delta X   Delta X   Delta X     New X
                                  (DIIS)     (GDIIS)  (Total)
    R1        2.48350   0.00006  -0.00001   0.00009   0.00008   2.48358
    R2        2.47429  -0.00008   0.00000  -0.00018  -0.00019   2.47411
    R3        2.02316   0.00002  -0.00001   0.00005   0.00004   2.02321
    R4        2.76939  -0.00007   0.00004  -0.00030  -0.00026   2.76913
    R5        3.27149   0.00008   0.00004   0.00031   0.00035   3.27184
    R6        2.03235  -0.00002   0.00000  -0.00003  -0.00003   2.03231
    R7        2.48739   0.00005   0.00000   0.00008   0.00008   2.48747
    R8        2.02498  -0.00001   0.00000  -0.00003  -0.00003   2.02495
    R9        2.02653   0.00001   0.00000   0.00002   0.00002   2.02656
    A1        2.15867   0.00005   0.00001   0.00023   0.00025   2.15892
    A2        2.14287  -0.00002  -0.00007  -0.00009  -0.00015   2.14272
    A3        1.98164  -0.00003   0.00005  -0.00014  -0.00009   1.98155
    A4        2.10969   0.00004   0.00007   0.00020   0.00026   2.10996
    A5        2.09265  -0.00001  -0.00004  -0.00004  -0.00008   2.09258
    A6        2.08084  -0.00003  -0.00003  -0.00016  -0.00019   2.08065
    A7        1.99021   0.00000   0.00006  -0.00001   0.00004   1.99025
    A8        2.20840  -0.00001  -0.00002  -0.00003  -0.00005   2.20835
    A9        2.08458   0.00001  -0.00004   0.00004   0.00001   2.08458
   A10        2.13565   0.00002   0.00001   0.00017   0.00019   2.13584
   A11        2.09865  -0.00001   0.00002  -0.00002   0.00000   2.09865
   A12        2.04889  -0.00002  -0.00004  -0.00015  -0.00019   2.04870
    D1        3.14159   0.00000   0.00000   0.00000   0.00000   3.14159
    D2        0.00000   0.00000   0.00000   0.00000   0.00000   0.00000
    D3        0.00000   0.00000   0.00000   0.00000   0.00000   0.00000
    D4        3.14159   0.00000   0.00000   0.00000   0.00000   3.14159
    D5        0.00000   0.00000   0.00000   0.00000   0.00000   0.00000
    D6        3.14159   0.00000   0.00000   0.00000   0.00000   3.14159
    D7        3.14159   0.00000   0.00000   0.00000   0.00000   3.14159
    D8        0.00000   0.00000   0.00000   0.00000   0.00000   0.00000
    D9        0.00000   0.00000   0.00000   0.00000   0.00000   0.00000
   D10        3.14159   0.00000   0.00000   0.00000   0.00000   3.14159
   D11        3.14159   0.00000   0.00000   0.00000   0.00000   3.14159
   D12        0.00000   0.00000   0.00000   0.00000   0.00000   0.00000
         Item               Value     Threshold  Converged?
 Maximum Force            0.000080     0.000450     YES
 RMS     Force            0.000031     0.000300     YES
 Maximum Displacement     0.000458     0.001800     YES
 RMS     Displacement     0.000158     0.001200     YES
 Predicted change in Energy=-5.672306D-08
 Optimization completed.
    -- Stationary point found.
                           ----------------------------
                           !   Optimized Parameters   !
                           ! (Angstroms and Degrees)  !
 --------------------------                            --------------------------
[...]
 Frequencies --  3312.3640              3376.2701              3390.2964
 Red. masses --     1.0825                 1.0945                 1.1167
 Frc consts  --     6.9976                 7.3506                 7.5622
 IR Inten    --     4.6875                 5.5847                 6.8082
  Atom  AN      X      Y      Z        X      Y      Z        X      Y      Z
     1   6     0.00   0.00   0.00    -0.01   0.09   0.00     0.00   0.00   0.00
     2   6     0.00   0.00   0.00     0.01   0.00   0.00     0.00   0.00   0.00
     3   6     0.01  -0.06   0.00     0.00   0.01   0.00     0.00  -0.01   0.00
     4   1    -0.02   0.63   0.00     0.00  -0.06   0.00    -0.01   0.10   0.00
     5   6    -0.05   0.03   0.00     0.00   0.00   0.00    -0.04  -0.09   0.00
     6   1     0.04  -0.55   0.00     0.00   0.03   0.00    -0.07   0.75   0.00
     7   1     0.45   0.29   0.00     0.02   0.01   0.00     0.55   0.34   0.00
     8  17     0.00   0.00   0.00     0.00   0.00   0.00     0.00   0.00   0.00
     9   9     0.00   0.00   0.00     0.00   0.00   0.00     0.00   0.00   0.00
    10   1     0.00  -0.05   0.00     0.00  -0.99   0.00     0.00   0.03   0.00

 -------------------
 - Thermochemistry -
 -------------------
 Temperature   298.150 Kelvin.  Pressure   1.00000 Atm.
 Atom     1 has atomic number  6 and mass  12.00000
 Atom     2 has atomic number  6 and mass  12.00000
 Atom     3 has atomic number  6 and mass  12.00000
 Atom     4 has atomic number  1 and mass   1.00783
 Atom     5 has atomic number  6 and mass  12.00000
 Atom     6 has atomic number  1 and mass   1.00783
 Atom     7 has atomic number  1 and mass   1.00783
 Atom     8 has atomic number 17 and mass  34.96885
 Atom     9 has atomic number  9 and mass  18.99840
 Atom    10 has atomic number  1 and mass   1.00783
 Molecular mass:   105.99856 amu.
 Principal axes and moments of inertia in atomic units:
                           1         2         3
     Eigenvalues --   396.89412 825.939151222.83327
           X            0.99934   0.03641   0.00000
           Y           -0.03641   0.99934   0.00000
           Z            0.00000   0.00000   1.00000
 This molecule is an asymmetric top.
 Rotational symmetry number  1.
 Rotational temperatures (Kelvin)      0.21823     0.10487     0.07083
 Rotational constants (GHZ):           4.54716     2.18508     1.47587
 Zero-point vibrational energy     193856.9 (Joules/Mol)
                                   46.33291 (Kcal/Mol)
 Warning -- explicit consideration of   6 degrees of freedom as
           vibrations may cause significant error
 Vibrational temperatures:    181.98   318.41   361.78   457.52   724.63
          (Kelvin)            725.29   897.82  1029.48  1115.73  1408.52
                             1553.27  1573.81  1602.52  1805.93  1869.33
                             2054.26  2110.58  2256.96  2621.42  2718.75
                             4741.87  4765.75  4857.69  4877.87
 
 Zero-point correction=                           0.073836 (Hartree/Particle)
 Thermal correction to Energy=                    0.079706
 Thermal correction to Enthalpy=                  0.080650
 Thermal correction to Gibbs Free Energy=         0.043597
 Sum of electronic and zero-point Energies=           -712.723604
 Sum of electronic and thermal Energies=              -712.717734
 Sum of electronic and thermal Enthalpies=            -712.716790
 Sum of electronic and thermal Free Energies=         -712.753843
 
                     E (Thermal)             CV                S
                      KCal/Mol        Cal/Mol-Kelvin    Cal/Mol-Kelvin
 Total                   50.016             19.905             77.985
 Electronic               0.000              0.000              0.000
 Translational            0.889              2.981             39.892
 Rotational               0.889              2.981             27.485
 Vibrational             48.239             13.944             10.608
 Vibration     1          0.611              1.927              2.999
 Vibration     2          0.648              1.809              1.948
 Vibration     3          0.663              1.760              1.720
 Vibration     4          0.704              1.639              1.320
 Vibration     5          0.859              1.242              0.649
 Vibration     6          0.859              1.241              0.648
                       Q            Log10(Q)             Ln(Q)
 Total Bot       0.885031D-20        -20.053042        -46.173835
 Total V=0       0.811290D+14         13.909176         32.027062
 Vib (Bot)       0.910357D-33        -33.040788        -76.079226
 Vib (Bot)    1  0.161321D+01          0.207691          0.478227
 Vib (Bot)    2  0.893301D+00         -0.049002         -0.112831
 Vib (Bot)    3  0.775643D+00         -0.110338         -0.254063
 Vib (Bot)    4  0.591863D+00         -0.227779         -0.524480
 Vib (Bot)    5  0.325271D+00         -0.487754         -1.123095
 Vib (Bot)    6  0.324840D+00         -0.488331         -1.124423
 Vib (V=0)       0.834506D+01          0.921430          2.121670
 Vib (V=0)    1  0.218892D+01          0.340230          0.783408
 Vib (V=0)    2  0.152371D+01          0.182903          0.421150
 Vib (V=0)    3  0.142283D+01          0.153154          0.352650
 Vib (V=0)    4  0.127479D+01          0.105439          0.242783
 Vib (V=0)    5  0.109649D+01          0.040005          0.092115
 Vib (V=0)    6  0.109626D+01          0.039912          0.091901
 Electronic      0.100000D+01          0.000000          0.000000
 Translational   0.428948D+08          7.632405         17.574262
 Rotational      0.226643D+06          5.355341         12.331129
 ***** Axes restored to original set *****
 -------------------------------------------------------------------
 Center     Atomic                   Forces (Hartrees/Bohr)
 Number     Number              X              Y              Z
 -------------------------------------------------------------------
      1        6          -0.000148767    0.000015866    0.000000000
      2        6           0.000171524   -0.000063434    0.000000000
      3        6          -0.000072007   -0.000046051    0.000000000
      4        1          -0.000012397    0.000011317    0.000000000
      5        6          -0.000016070    0.000055082    0.000000000
      6        1           0.000022816   -0.000005325    0.000000000
      7        1           0.000006776    0.000004803    0.000000000
      8       17          -0.000034679    0.000071876    0.000000000
      9        9           0.000082364   -0.000025764    0.000000000
     10        1           0.000000441   -0.000018370    0.000000000
 -------------------------------------------------------------------
 Cartesian Forces:  Max     0.000171524 RMS     0.000052115

 GradGradGradGradGradGradGradGradGradGradGradGradGradGradGradGradGradGrad
 Berny optimization.
 Internal  Forces:  Max     0.000079852 RMS     0.000030930
 Search for a local minimum.
 Step number   1 out of a maximum of    2
 All quantities printed in internal units (Hartrees-Bohrs-Radians)
 Second derivative matrix not updated -- analytic derivatives used.
     Eigenvalues ---    0.00691   0.02750   0.03000   0.03638   0.03734
     Eigenvalues ---    0.05069   0.06316   0.11970   0.12791   0.14195
     Eigenvalues ---    0.15420   0.18034   0.20276   0.24196   0.26129
     Eigenvalues ---    0.32085   0.38661   0.38788   0.39507   0.40139
     Eigenvalues ---    0.41013   0.52029   0.71442   0.733111000.00000
     Eigenvalues --- 1000.000001000.000001000.000001000.000001000.00000
     Eigenvalues --- 1000.000001000.000001000.00000
 Angle between quadratic step and forces=  27.27 degrees.
 Linear search not attempted -- first point.
 Iteration  1 RMS(Cart)=  0.00012054 RMS(Int)=  0.00000001
 Iteration  2 RMS(Cart)=  0.00000002 RMS(Int)=  0.00000000
 ClnCor:  largest displacement from symmetrization is 1.55D-15 for atom     7.
 Variable       Old X    -DE/DX   Delta X   Delta X   Delta X     New X
                                 (Linear)    (Quad)   (Total)
    R1        2.48350   0.00006   0.00000   0.00007   0.00007   2.48357
    R2        2.47429  -0.00008   0.00000  -0.00020  -0.00020   2.47409
    R3        2.02316   0.00002   0.00000   0.00006   0.00006   2.02323
    R4        2.76939  -0.00007   0.00000  -0.00023  -0.00023   2.76915
    R5        3.27149   0.00008   0.00000   0.00038   0.00038   3.27187
    R6        2.03235  -0.00002   0.00000  -0.00004  -0.00004   2.03231
    R7        2.48739   0.00005   0.00000   0.00008   0.00008   2.48747
    R8        2.02498  -0.00001   0.00000  -0.00004  -0.00004   2.02494
    R9        2.02653   0.00001   0.00000   0.00002   0.00002   2.02656
    A1        2.15867   0.00005   0.00000   0.00023   0.00023   2.15891
    A2        2.14287  -0.00002   0.00000  -0.00014  -0.00014   2.14273
    A3        1.98164  -0.00003   0.00000  -0.00009  -0.00009   1.98155
    A4        2.10969   0.00004   0.00000   0.00027   0.00027   2.10996
    A5        2.09265  -0.00001   0.00000  -0.00014  -0.00014   2.09251
    A6        2.08084  -0.00003   0.00000  -0.00013  -0.00013   2.08071
    A7        1.99021   0.00000   0.00000   0.00001   0.00001   1.99021
    A8        2.20840  -0.00001   0.00000  -0.00001  -0.00001   2.20839
    A9        2.08458   0.00001   0.00000   0.00001   0.00001   2.08458
   A10        2.13565   0.00002   0.00000   0.00017   0.00017   2.13582
   A11        2.09865  -0.00001   0.00000  -0.00005  -0.00005   2.09859
   A12        2.04889  -0.00002   0.00000  -0.00012  -0.00012   2.04877
    D1        3.14159   0.00000   0.00000   0.00000   0.00000   3.14159
    D2        0.00000   0.00000   0.00000   0.00000   0.00000   0.00000
    D3        0.00000   0.00000   0.00000   0.00000   0.00000   0.00000
    D4        3.14159   0.00000   0.00000   0.00000   0.00000   3.14159
    D5        0.00000   0.00000   0.00000   0.00000   0.00000   0.00000
    D6        3.14159   0.00000   0.00000   0.00000   0.00000   3.14159
    D7        3.14159   0.00000   0.00000   0.00000   0.00000   3.14159
    D8        0.00000   0.00000   0.00000   0.00000   0.00000   0.00000
    D9        0.00000   0.00000   0.00000   0.00000   0.00000   0.00000
   D10        3.14159   0.00000   0.00000   0.00000   0.00000   3.14159
   D11        3.14159   0.00000   0.00000   0.00000   0.00000   3.14159
   D12        0.00000   0.00000   0.00000   0.00000   0.00000   0.00000
         Item               Value     Threshold  Converged?
 Maximum Force            0.000080     0.000450     YES
 RMS     Force            0.000031     0.000300     YES
 Maximum Displacement     0.000291     0.001800     YES
 RMS     Displacement     0.000121     0.001200     YES
 Predicted change in Energy=-5.531482D-08
 Optimization completed.
    -- Stationary point found.
                           ----------------------------
                           !   Optimized Parameters   !
                           ! (Angstroms and Degrees)  !
 --------------------------                            --------------------------
 ! Name  Definition              Value          Derivative Info.                !
 --------------------------------------------------------------------------------
 ! R1    R(1,2)                  1.3142         -DE/DX =    0.0001              !
 ! R2    R(1,9)                  1.3093         -DE/DX =   -0.0001              !
 ! R3    R(1,10)                 1.0706         -DE/DX =    0.0                 !
 ! R4    R(2,3)                  1.4655         -DE/DX =   -0.0001              !
 ! R5    R(2,8)                  1.7312         -DE/DX =    0.0001              !
 ! R6    R(3,4)                  1.0755         -DE/DX =    0.0                 !
 ! R7    R(3,5)                  1.3163         -DE/DX =    0.0001              !
 ! R8    R(5,6)                  1.0716         -DE/DX =    0.0                 !
 ! R9    R(5,7)                  1.0724         -DE/DX =    0.0                 !
 ! A1    A(2,1,9)              123.683          -DE/DX =    0.0                 !
 ! A2    A(2,1,10)             122.7775         -DE/DX =    0.0                 !
 ! A3    A(9,1,10)             113.5395         -DE/DX =    0.0                 !
 ! A4    A(1,2,3)              120.8765         -DE/DX =    0.0                 !
 ! A5    A(1,2,8)              119.9003         -DE/DX =    0.0                 !
 ! A6    A(3,2,8)              119.2232         -DE/DX =    0.0                 !
 ! A7    A(2,3,4)              114.0304         -DE/DX =    0.0                 !
 ! A8    A(2,3,5)              126.5322         -DE/DX =    0.0                 !
 ! A9    A(4,3,5)              119.4374         -DE/DX =    0.0                 !
 ! A10   A(3,5,6)              122.3636         -DE/DX =    0.0                 !
 ! A11   A(3,5,7)              120.2436         -DE/DX =    0.0                 !
 ! A12   A(6,5,7)              117.3928         -DE/DX =    0.0                 !
 ! D1    D(9,1,2,3)            180.0            -DE/DX =    0.0                 !
 ! D2    D(9,1,2,8)              0.0            -DE/DX =    0.0                 !
 ! D3    D(10,1,2,3)             0.0            -DE/DX =    0.0                 !
 ! D4    D(10,1,2,8)           180.0            -DE/DX =    0.0                 !
 ! D5    D(1,2,3,4)              0.0            -DE/DX =    0.0                 !
 ! D6    D(1,2,3,5)            180.0            -DE/DX =    0.0                 !
 ! D7    D(8,2,3,4)            180.0            -DE/DX =    0.0                 !
 ! D8    D(8,2,3,5)              0.0            -DE/DX =    0.0                 !
 ! D9    D(2,3,5,6)              0.0            -DE/DX =    0.0                 !
 ! D10   D(2,3,5,7)            180.0            -DE/DX =    0.0                 !
 ! D11   D(4,3,5,6)            180.0            -DE/DX =    0.0                 !
 ! D12   D(4,3,5,7)              0.0            -DE/DX =    0.0                 !
 --------------------------------------------------------------------------------
 GradGradGradGradGradGradGradGradGradGradGradGradGradGradGradGradGradGrad

 1\1\GINC-MALLOS71\Freq\RHF\CC-pVTZ\C4H4Cl1F1\MARLIN\26-Oct-2024\0\\#N 
 Geom=AllCheck Guess=TCheck SCRF=Check GenChk RHF/CC-pVTZ Freq\\Title C
 ard Required\\0,1\C,-2.067631437,-1.6679986431,0.\C,-1.4352382234,-0.5
 159446405,0.\C,0.0292619153,-0.4619114814,0.\H,0.5031343415,-1.4273555
 424,0.\C,0.7732755328,0.6239123956,0.\H,0.350842181,1.6087087633,0.\H,
 1.8428235962,0.5458275779,0.\Cl,-2.3355610844,0.9627233189,0.\F,-3.372
 1481156,-1.7802800178,0.\H,-1.5574544364,-2.6092368105,0.\\Version=EM6
 4L-G09RevA.01\State=1-A'\HF=-712.7974399\RMSD=1.749e-09\RMSF=5.212e-05
 \ZeroPoint=0.0738362\Thermal=0.0797056\Dipole=0.8511362,-0.4976629,0.\
 DipoleDeriv=1.3022179,0.8401058,0.,0.2777685,0.389274,0.,0.,0.,0.02815
 35,0.1644839,-0.4028679,0.,-0.5423263,0.4148333,0.,0.,0.,-0.0505034,0.
 3360676,0.1726485,0.,0.1083931,-0.0105131,0.,0.,0.,-0.1573757,-0.03028
 98,0.0439816,0.,0.0504116,-0.0597807,0.,0.,0.,0.1514258,-0.0788749,-0.
 1593834,0.,-0.1216697,-0.0249459,0.,0.,0.,-0.2832417,0.0481338,0.07332
 04,0.,0.0368933,-0.0004073,0.,0.,0.,0.1562404,-0.0905039,-0.0079772,0.
 ,0.0434924,0.0671598,0.,0.,0.,0.1499904,-0.2635512,0.256917,0.,0.19469
 74,-0.4530994,0.,0.,0.,-0.0381131,-1.4063781,-0.8191347,0.,-0.1230866,
 -0.3271897,0.,0.,0.,-0.1272741,0.0186947,0.00239,0.,0.0754262,0.004669
 1,0.,0.,0.,0.170698\Polar=68.7893578,14.0546085,74.2429852,0.,0.,32.25
 9196\HyperPolar=136.0912004,37.3427542,29.8992872,-62.9935727,0.,0.,0.
 ,11.7129291,-2.8244653,0.\PG=CS [SG(C4H4Cl1F1)]\NImag=0\\0.79012864,0.
 11215160,0.97814360,0.,0.,0.15319246,-0.21313843,-0.19628167,0.,0.6625
 8098,-0.22497084,-0.52269064,0.,0.18009630,0.80505730,0.,0.,-0.0694345
 4,0.,0.,0.13386670,-0.03042721,-0.02138216,0.,-0.27477150,0.00214324,0
 .,0.72497799,-0.03586952,0.00414374,0.,0.00136955,-0.10644505,0.,0.134
 46495,0.92201840,0.,0.,0.00015488,0.,0.,-0.07007109,0.,0.,0.15658776,0
 .00030601,0.00099705,0.,-0.01233681,0.03027100,0.,-0.12698242,0.118961
 21,0.,0.13210683,-0.00157049,-0.00101226,0.,-0.00087098,0.00198454,0.,
 0.11636920,-0.30178739,0.,-0.12434396,0.32381698,0.,0.,-0.00065188,0.,
 0.,0.00348697,0.,0.,-0.04744554,0.,0.,0.03045028,-0.00054689,0.0091348
 7,0.,-0.03024303,-0.04150487,0.,-0.28695702,-0.23108373,0.,0.01358859,
 0.01605513,0.,0.79913355,0.00515423,0.00387704,0.,-0.01372239,0.003822
 19,0.,-0.22327819,-0.48114793,0.,-0.02202758,-0.02410488,0.,0.11388154
 ,0.89092679,0.,0.,0.00138336,0.,0.,0.00733355,0.,0.,-0.06565882,0.,0.,
 0.00847110,0.,0.,0.13852537,-0.00000945,0.00008513,0.,0.00086583,-0.00
 006528,0.,0.01538446,-0.01945989,0.,-0.00204379,-0.00377179,0.,-0.1184
 5300,0.11638207,0.,0.11500684,-0.00006120,-0.00031815,0.,0.00206860,-0
 .00043129,0.,0.01499876,-0.02196358,0.,-0.00358661,-0.00276235,0.,0.10
 817863,-0.32449824,0.,-0.12159765,0.34451455,0.,0.,-0.00000177,0.,0.,-
 0.00828033,0.,0.,0.00827180,0.,0.,0.01282849,0.,0.,-0.04650448,0.,0.,0
 .02894436,-0.00048036,0.00042160,0.,0.00078948,-0.00264532,0.,-0.01507
 214,0.00547379,0.,0.00131563,-0.00039677,0.,-0.37045365,0.02343124,0.,
 -0.00731859,-0.00111147,0.,0.39156073,-0.00091299,0.00097641,0.,-0.001
 55519,-0.00590036,0.,-0.03362068,0.00597453,0.,0.00007503,0.00144693,0
 .,0.03149646,-0.07017835,0.,0.02891680,0.00319037,0.,-0.02453448,0.064
 19367,0.,0.,0.00084222,0.,0.,0.01363080,0.,0.,0.00658960,0.,0.,-0.0092
 5686,0.,0.,-0.04341387,0.,0.,0.00438439,0.,0.,0.02862811,-0.00385652,0
 .00181590,0.,-0.08658149,0.06826287,0.,-0.01401984,0.03530482,0.,-0.00
 545577,-0.00116126,0.,-0.00109461,-0.00042078,0.,-0.00340308,0.0011619
 9,0.,0.00011133,0.00073133,0.,0.10742264,0.03970845,-0.04457821,0.,0.0
 6415267,-0.16538074,0.,0.00610865,-0.01380939,0.,0.00135561,0.00118872
 ,0.,-0.00257358,0.00016842,0.,-0.00077134,0.00188195,0.,-0.00023440,0.
 00078721,0.,-0.09998197,0.22071071,0.,0.,0.00988616,0.,0.,-0.03054007,
 0.,0.,0.00328920,0.,0.,0.00201099,0.,0.,-0.00013374,0.,0.,-0.00040180,
 0.,0.,0.00009728,0.,0.,0.01462714,-0.41981571,-0.02888707,0.,-0.059073
 80,0.00004592,0.,0.00792018,-0.00780400,0.,-0.00000172,0.00057018,0.,-
 0.00515901,0.00047675,0.,-0.00006115,-0.00006545,0.,-0.00043547,-0.000
 62172,0.,0.00694394,-0.00339881,0.,0.50878704,-0.01897387,-0.09686243,
 0.,-0.05100854,0.00571162,0.,0.00251895,-0.00686658,0.,-0.00064139,0.0
 0055279,0.,-0.00304513,0.00073237,0.,0.00010762,0.00021257,0.,-0.00035
 773,-0.00046273,0.,-0.00439525,0.00212284,0.,0.04331954,0.08242893,0.,
 0.,-0.04927849,0.,0.,0.01062480,0.,0.,0.01356310,0.,0.,-0.00033130,0.,
 0.,0.00003375,0.,0.,0.00034500,0.,0.,-0.00161482,0.,0.,-0.00637069,0.,
 0.,0.02618857,-0.12216008,0.12194475,0.,0.01190878,-0.01163302,0.,-0.0
 0005251,-0.00135717,0.,-0.00049654,-0.00087926,0.,0.00018508,0.0001231
 0,0.,0.00003194,0.00001438,0.,-0.00001696,0.00002543,0.,-0.00006659,-0
 .00436528,0.,-0.03910431,0.03247580,0.,0.14977119,0.12534461,-0.321679
 11,0.,0.01575166,-0.01572757,0.,0.00167729,-0.00011675,0.,-0.00106036,
 0.00067691,0.,-0.00053932,0.00040259,0.,0.00017432,0.00017417,0.,-0.00
 004647,-0.00002769,0.,-0.00131765,-0.00309153,0.,-0.00363534,0.0124306
 3,0.,-0.13634873,0.32695835,0.,0.,-0.04609241,0.,0.,0.00938321,0.,0.,-
 0.00528089,0.,0.,0.00043775,0.,0.,-0.00003622,0.,0.,0.00041433,0.,0.,0
 .00011316,0.,0.,0.00753552,0.,0.,0.00684008,0.,0.,0.02668546\\0.000148
 77,-0.00001587,0.,-0.00017152,0.00006343,0.,0.00007201,0.00004605,0.,0
 .00001240,-0.00001132,0.,0.00001607,-0.00005508,0.,-0.00002282,0.00000
 532,0.,-0.00000678,-0.00000480,0.,0.00003468,-0.00007188,0.,-0.0000823
 6,0.00002576,0.,-0.00000044,0.00001837,0.\\\@


 A MAN BEGINS CUTTING HIS WISDOM TEETH THE 1ST
 TIME HE BITES OFF MORE THAN HE CAN CHEW.
 Job cpu time:  0 days  0 hours 17 minutes  2.9 seconds.
 File lengths (MBytes):  RWF=     53 Int=      0 D2E=      0 Chk=      5 Scr=      1
 Normal termination of Gaussian 09 at Sat Oct 26 19:22:50 2024.
