 Entering Gaussian System, Link 0=g09
 Initial command:
 /u/local/G09/g09/l1.exe /tmp/marlin/23020.mallos00.local/Gau-10787.inp -scrdir=/tmp/marlin/23020.mallos00.local/
 Entering Link 1 = /u/local/G09/g09/l1.exe PID=     10789.
  
 Copyright (c) 1988,1990,1992,1993,1995,1998,2003,2009, Gaussian, Inc.
                  All Rights Reserved.
  
 This is part of the Gaussian(R) 09 program.  It is based on
 the Gaussian(R) 03 system (copyright 2003, Gaussian, Inc.),
 the Gaussian(R) 98 system (copyright 1998, Gaussian, Inc.),
 the Gaussian(R) 94 system (copyright 1995, Gaussian, Inc.),
 the Gaussian 92(TM) system (copyright 1992, Gaussian, Inc.),
 the Gaussian 90(TM) system (copyright 1990, Gaussian, Inc.),
 the Gaussian 88(TM) system (copyright 1988, Gaussian, Inc.),
 the Gaussian 86(TM) system (copyright 1986, Carnegie Mellon
 University), and the Gaussian 82(TM) system (copyright 1983,
 Carnegie Mellon University). Gaussian is a federally registered
 trademark of Gaussian, Inc.
  
 This software contains proprietary and confidential information,
 including trade secrets, belonging to Gaussian, Inc.
  
 This software is provided under written license and may be
 used, copied, transmitted, or stored only in accord with that
 written license.
  
 The following legend is applicable only to US Government
 contracts under FAR:
  
                    RESTRICTED RIGHTS LEGEND
  
 Use, reproduction and disclosure by the US Government is
 subject to restrictions as set forth in subparagraphs (a)
 and (c) of the Commercial Computer Software - Restricted
 Rights clause in FAR 52.227-19.
  
 Gaussian, Inc.
 340 Quinnipiac St., Bldg. 40, Wallingford CT 06492
  
  
 ---------------------------------------------------------------
 Warning -- This program may not be used in any manner that
 competes with the business of Gaussian, Inc. or will provide
 assistance to any competitor of Gaussian, Inc.  The licensee
 of this program is prohibited from giving any competitor of
 Gaussian, Inc. access to this program.  By using this program,
 the user acknowledges that Gaussian, Inc. is engaged in the
 business of creating and licensing software in the field of
 computational chemistry and represents and warrants to the
 licensee that it is not a competitor of Gaussian, Inc. and that
 it will not use this program in any manner prohibited above.
 ---------------------------------------------------------------
  

 Cite this work as:
 Gaussian 09, Revision A.01,
 M. J. Frisch, G. W. Trucks, H. B. Schlegel, G. E. Scuseria, 
 M. A. Robb, J. R. Cheeseman, G. Scalmani, V. Barone, B. Mennucci, 
 G. A. Petersson, H. Nakatsuji, M. Caricato, X. Li, H. P. Hratchian, 
 A. F. Izmaylov, J. Bloino, G. Zheng, J. L. Sonnenberg, M. Hada, 
 M. Ehara, K. Toyota, R. Fukuda, J. Hasegawa, M. Ishida, T. Nakajima, 
 Y. Honda, O. Kitao, H. Nakai, T. Vreven, J. A. Montgomery, Jr., 
 J. E. Peralta, F. Ogliaro, M. Bearpark, J. J. Heyd, E. Brothers, 
 K. N. Kudin, V. N. Staroverov, R. Kobayashi, J. Normand, 
 K. Raghavachari, A. Rendell, J. C. Burant, S. S. Iyengar, J. Tomasi, 
 M. Cossi, N. Rega, J. M. Millam, M. Klene, J. E. Knox, J. B. Cross, 
 V. Bakken, C. Adamo, J. Jaramillo, R. Gomperts, R. E. Stratmann, 
 O. Yazyev, A. J. Austin, R. Cammi, C. Pomelli, J. W. Ochterski, 
 R. L. Martin, K. Morokuma, V. G. Zakrzewski, G. A. Voth, 
 P. Salvador, J. J. Dannenberg, S. Dapprich, A. D. Daniels, 
 O. Farkas, J. B. Foresman, J. V. Ortiz, J. Cioslowski, 
 and D. J. Fox, Gaussian, Inc., Wallingford CT, 2009.
 
 ******************************************
 Gaussian 09:  EM64L-G09RevA.01  8-May-2009
                26-Oct-2024 
 ******************************************
 %mem=103GB
 %nproc=20
 Will use up to   20 processors via shared memory.
 %chk=6-base4.chk
 -----------------------------------------------
 # opt freq=noraman hf/cc-pvdz geom=connectivity
 -----------------------------------------------
 1/18=20,19=15,38=1,57=2/1,3;
 2/9=110,12=2,17=6,18=5,40=1/2;
 3/5=16,11=9,16=1,25=1,30=1,71=1/1,2,3;
 4//1;
 5/5=2,38=5/2;
 6/7=2,8=2,9=2,10=2,28=1/1;
 7//1,2,3,16;
 1/18=20,19=15/3(2);
 2/9=110/2;
 99//99;
 2/9=110/2;
 3/5=16,11=9,16=1,25=1,30=1,71=1/1,2,3;
 4/5=5,16=3/1;
 5/5=2,38=5/2;
 7//1,2,3,16;
 1/18=20,19=15/3(-5);
 2/9=110/2;
 6/7=2,8=2,9=2,10=2,19=2,28=1/1;
 99/9=1/99;
 -------------------
 Title Card Required
 -------------------
 Symbolic Z-matrix:
 Charge =  0 Multiplicity = 1
 C                    -2.1124   -1.70543   0. 
 C                    -1.43713  -0.53045   0. 
 C                     0.10287  -0.53045   0. 
 H                     0.63603  -1.45815   0. 
 C                     0.78511   0.6405    0. 
 H                     0.25747   1.57135   0. 
 H                     1.8551    0.63414   0. 
 Cl                   -2.31411   0.9955    0. 
 F                    -3.4624   -1.70543   0. 
 H                    -1.57924  -2.63313   0. 
 

 GradGradGradGradGradGradGradGradGradGradGradGradGradGradGradGradGradGrad
 Berny optimization.
 Initialization pass.
                           ----------------------------
                           !    Initial Parameters    !
                           ! (Angstroms and Degrees)  !
 --------------------------                            --------------------------
 ! Name  Definition              Value          Derivative Info.                !
 --------------------------------------------------------------------------------
 ! R1    R(1,2)                  1.3552         estimate D2E/DX2                !
 ! R2    R(1,9)                  1.35           estimate D2E/DX2                !
 ! R3    R(1,10)                 1.07           estimate D2E/DX2                !
 ! R4    R(2,3)                  1.54           estimate D2E/DX2                !
 ! R5    R(2,8)                  1.76           estimate D2E/DX2                !
 ! R6    R(3,4)                  1.07           estimate D2E/DX2                !
 ! R7    R(3,5)                  1.3552         estimate D2E/DX2                !
 ! R8    R(5,6)                  1.07           estimate D2E/DX2                !
 ! R9    R(5,7)                  1.07           estimate D2E/DX2                !
 ! A1    A(2,1,9)              119.8865         estimate D2E/DX2                !
 ! A2    A(2,1,10)             120.2269         estimate D2E/DX2                !
 ! A3    A(9,1,10)             119.8865         estimate D2E/DX2                !
 ! A4    A(1,2,3)              119.8865         estimate D2E/DX2                !
 ! A5    A(1,2,8)              120.2269         estimate D2E/DX2                !
 ! A6    A(3,2,8)              119.8865         estimate D2E/DX2                !
 ! A7    A(2,3,4)              119.8865         estimate D2E/DX2                !
 ! A8    A(2,3,5)              120.2269         estimate D2E/DX2                !
 ! A9    A(4,3,5)              119.8865         estimate D2E/DX2                !
 ! A10   A(3,5,6)              120.2269         estimate D2E/DX2                !
 ! A11   A(3,5,7)              119.8865         estimate D2E/DX2                !
 ! A12   A(6,5,7)              119.8865         estimate D2E/DX2                !
 ! D1    D(9,1,2,3)            180.0            estimate D2E/DX2                !
 ! D2    D(9,1,2,8)              0.0            estimate D2E/DX2                !
 ! D3    D(10,1,2,3)             0.0            estimate D2E/DX2                !
 ! D4    D(10,1,2,8)           180.0            estimate D2E/DX2                !
 ! D5    D(1,2,3,4)              0.0            estimate D2E/DX2                !
 ! D6    D(1,2,3,5)            180.0            estimate D2E/DX2                !
 ! D7    D(8,2,3,4)            180.0            estimate D2E/DX2                !
 ! D8    D(8,2,3,5)              0.0            estimate D2E/DX2                !
 ! D9    D(2,3,5,6)              0.0            estimate D2E/DX2                !
 ! D10   D(2,3,5,7)            180.0            estimate D2E/DX2                !
 ! D11   D(4,3,5,6)            180.0            estimate D2E/DX2                !
 ! D12   D(4,3,5,7)              0.0            estimate D2E/DX2                !
 --------------------------------------------------------------------------------
 Trust Radius=3.00D-01 FncErr=1.00D-07 GrdErr=1.00D-07
 Number of steps in this run=  43 maximum allowed number of steps= 100.
 GradGradGradGradGradGradGradGradGradGradGradGradGradGradGradGradGradGrad

                          Input orientation:                          
 ---------------------------------------------------------------------
 Center     Atomic      Atomic             Coordinates (Angstroms)
 Number     Number       Type             X           Y           Z
 ---------------------------------------------------------------------
      1          6           0       -2.112403   -1.705426    0.000000
      2          6           0       -1.437129   -0.530449    0.000000
      3          6           0        0.102871   -0.530449    0.000000
      4          1           0        0.636035   -1.458154    0.000000
      5          6           0        0.785114    0.640495    0.000000
      6          1           0        0.257472    1.571352    0.000000
      7          1           0        1.855096    0.634138    0.000000
      8         17           0       -2.314109    0.995496    0.000000
      9          9           0       -3.462403   -1.705426    0.000000
     10          1           0       -1.579240   -2.633131    0.000000
 ---------------------------------------------------------------------
                    Distance matrix (angstroms):
                    1          2          3          4          5
     1  C    0.000000
     2  C    1.355200   0.000000
     3  C    2.507591   1.540000   0.000000
     4  H    2.759539   2.271265   1.070000   0.000000
     5  C    3.728131   2.511867   1.355200   2.103938   0.000000
     6  H    4.043956   2.699859   2.107479   3.053066   1.070000
     7  H    4.605932   3.492135   2.103938   2.421527   1.070000
     8  Cl   2.708443   1.760000   2.858373   3.837153   3.119488
     9  F    1.350000   2.341433   3.753898   4.105891   4.852294
    10  H    1.070000   2.107479   2.692725   2.507591   4.038168
                    6          7          8          9         10
     6  H    0.000000
     7  H    1.852234   0.000000
     8  Cl   2.635268   4.184835   0.000000
     9  F    4.957292   5.809420   2.934887   0.000000
    10  H    4.588157   4.740222   3.702292   2.099272   0.000000
 Stoichiometry    C4H4ClF
 Framework group  CS[SG(C4H4ClF)]
 Deg. of freedom    17
 Full point group                 CS      NOp   2
 Largest Abelian subgroup         CS      NOp   2
 Largest concise Abelian subgroup C1      NOp   1
                         Standard orientation:                         
 ---------------------------------------------------------------------
 Center     Atomic      Atomic             Coordinates (Angstroms)
 Number     Number       Type             X           Y           Z
 ---------------------------------------------------------------------
      1          6           0        1.463460   -0.532748    0.000000
      2          6           0        0.288483    0.142526    0.000000
      3          6           0        0.288483    1.682526    0.000000
      4          1           0        1.216188    2.215690    0.000000
      5          6           0       -0.882462    2.364770    0.000000
      6          1           0       -1.813318    1.837127    0.000000
      7          1           0       -0.876104    3.434751    0.000000
      8         17           0       -1.237462   -0.734453    0.000000
      9          9           0        1.463460   -1.882748    0.000000
     10          1           0        2.391165    0.000416    0.000000
 ---------------------------------------------------------------------
 Rotational constants (GHZ):      4.4300235      2.1166708      1.4323109
 Standard basis: CC-pVDZ (5D, 7F)
 There are    79 symmetry adapted basis functions of A'  symmetry.
 There are    29 symmetry adapted basis functions of A"  symmetry.
 Integral buffers will be    131072 words long.
 Raffenetti 1 integral format.
 Two-electron integral symmetry is turned on.
   108 basis functions,   264 primitive gaussians,   114 cartesian basis functions
    27 alpha electrons       27 beta electrons
       nuclear repulsion energy       264.6556380902 Hartrees.
 NAtoms=   10 NActive=   10 NUniq=   10 SFac= 7.50D-01 NAtFMM=   80 NAOKFM=F Big=F
 One-electron integrals computed using PRISM.
 NBasis=   108 RedAO= T  NBF=    79    29
 NBsUse=   108 1.00D-06 NBFU=    79    29
 Harris functional with IExCor=  205 diagonalized for initial guess.
 ExpMin= 1.22D-01 ExpMax= 1.28D+05 ExpMxC= 1.24D+03 IAcc=2 IRadAn=         0 AccDes= 0.00D+00
 HarFok:  IExCor=  205 AccDes= 0.00D+00 IRadAn=         0 IDoV= 1
 ScaDFX=  1.000000  1.000000  1.000000  1.000000
 FoFCou: FMM=F IPFlag=           0 FMFlag=      100000 FMFlg1=           0
         NFxFlg=           0 DoJE=T BraDBF=F KetDBF=T FulRan=T
         Omega=  0.000000  0.000000  1.000000  0.000000  0.000000 ICntrl=     500 IOpCl=  0
         NMat0=    1 NMatS0=    1 NMatT0=    0 NMatD0=    1 NMtDS0=    0 NMtDT0=    0
         I1Cent=           4 NGrid=           0.
 Petite list used in FoFCou.
 Initial guess orbital symmetries:
       Occupied  (A') (A') (A') (A') (A') (A') (A') (A') (A") (A')
                 (A') (A') (A') (A') (A') (A') (A') (A') (A') (A')
                 (A") (A') (A") (A') (A") (A') (A")
       Virtual   (A") (A') (A") (A') (A') (A') (A') (A') (A') (A')
                 (A') (A') (A') (A") (A') (A') (A") (A') (A') (A')
                 (A") (A') (A") (A") (A') (A') (A') (A') (A") (A")
                 (A') (A') (A') (A") (A') (A") (A') (A") (A') (A')
                 (A") (A') (A') (A") (A') (A') (A") (A') (A') (A')
                 (A") (A') (A') (A') (A') (A") (A') (A") (A") (A')
                 (A') (A") (A') (A") (A') (A') (A") (A') (A') (A')
                 (A') (A') (A') (A') (A') (A') (A") (A') (A") (A')
                 (A')
 The electronic state of the initial guess is 1-A'.
 Requested convergence on RMS density matrix=1.00D-08 within 128 cycles.
 Requested convergence on MAX density matrix=1.00D-06.
 Requested convergence on             energy=1.00D-06.
 No special actions if energy rises.
 Keep R1 ints in memory in canonical form, NReq=22367630.
 SCF Done:  E(RHF) =  -712.692974593     A.U. after   13 cycles
             Convg  =    0.9342D-08             -V/T =  2.0006

 **********************************************************************

            Population analysis using the SCF density.

 **********************************************************************

 Orbital symmetries:
       Occupied  (A') (A') (A') (A') (A') (A') (A') (A') (A') (A")
                 (A') (A') (A') (A') (A') (A') (A') (A') (A") (A')
                 (A') (A') (A') (A") (A') (A") (A")
       Virtual   (A") (A') (A') (A") (A') (A') (A') (A') (A') (A')
                 (A') (A') (A') (A") (A') (A') (A") (A') (A') (A")
                 (A') (A") (A') (A") (A') (A') (A') (A') (A") (A")
                 (A') (A') (A') (A') (A") (A') (A") (A') (A") (A')
                 (A') (A") (A') (A") (A') (A') (A") (A') (A') (A')
                 (A") (A') (A') (A') (A') (A") (A") (A') (A") (A')
                 (A") (A') (A') (A") (A') (A') (A") (A') (A') (A')
                 (A') (A') (A') (A') (A') (A') (A") (A') (A") (A')
                 (A')
 The electronic state is 1-A'.
 Alpha  occ. eigenvalues -- -104.84410 -26.32169 -11.34936 -11.32518 -11.27571
 Alpha  occ. eigenvalues --  -11.25149 -10.57021  -8.03785  -8.03433  -8.03424
 Alpha  occ. eigenvalues --   -1.63347  -1.16868  -1.06072  -1.01590  -0.84452
 Alpha  occ. eigenvalues --   -0.78206  -0.73395  -0.70294  -0.69465  -0.62923
 Alpha  occ. eigenvalues --   -0.59640  -0.56489  -0.53172  -0.52028  -0.46009
 Alpha  occ. eigenvalues --   -0.42037  -0.33668
 Alpha virt. eigenvalues --    0.10733   0.17029   0.20863   0.20893   0.21404
 Alpha virt. eigenvalues --    0.24701   0.27055   0.33951   0.40660   0.44126
 Alpha virt. eigenvalues --    0.49627   0.59809   0.63131   0.64260   0.68314
 Alpha virt. eigenvalues --    0.69075   0.70172   0.70525   0.74729   0.76579
 Alpha virt. eigenvalues --    0.77172   0.78768   0.79130   0.81222   0.86109
 Alpha virt. eigenvalues --    0.87098   0.92545   0.94759   0.96028   0.97997
 Alpha virt. eigenvalues --    0.98744   1.05448   1.08646   1.10307   1.11782
 Alpha virt. eigenvalues --    1.18208   1.20753   1.21300   1.23872   1.28158
 Alpha virt. eigenvalues --    1.31762   1.32148   1.38781   1.46252   1.49635
 Alpha virt. eigenvalues --    1.56085   1.60084   1.60930   1.65996   1.71925
 Alpha virt. eigenvalues --    1.74144   1.75094   1.77983   1.82811   1.89323
 Alpha virt. eigenvalues --    1.89394   1.90874   1.92696   1.99844   2.02039
 Alpha virt. eigenvalues --    2.12173   2.13993   2.20064   2.21611   2.29258
 Alpha virt. eigenvalues --    2.36442   2.37818   2.44786   2.52246   2.57428
 Alpha virt. eigenvalues --    2.69396   2.75591   2.82442   2.98557   3.10602
 Alpha virt. eigenvalues --    3.35857   3.98304   4.00691   4.18236   4.37798
 Alpha virt. eigenvalues --    4.54517
          Condensed to atoms (all electrons):
              1          2          3          4          5          6
     1  C    4.396148   0.586528  -0.055621  -0.002900   0.000951   0.000837
     2  C    0.586528   5.240047   0.343754  -0.036464  -0.076798  -0.016451
     3  C   -0.055621   0.343754   4.747135   0.420952   0.707646  -0.016893
     4  H   -0.002900  -0.036464   0.420952   0.603068  -0.021147   0.005878
     5  C    0.000951  -0.076798   0.707646  -0.021147   4.566059   0.412977
     6  H    0.000837  -0.016451  -0.016893   0.005878   0.412977   0.570499
     7  H   -0.000136   0.005314  -0.017813  -0.009165   0.405834  -0.032771
     8  Cl  -0.073263   0.275099  -0.054268   0.002012  -0.006637   0.007739
     9  F    0.314571  -0.046884   0.001597   0.000043  -0.000050   0.000002
    10  H    0.431317  -0.056338  -0.000822   0.000277   0.000352   0.000007
              7          8          9         10
     1  C   -0.000136  -0.073263   0.314571   0.431317
     2  C    0.005314   0.275099  -0.046884  -0.056338
     3  C   -0.017813  -0.054268   0.001597  -0.000822
     4  H   -0.009165   0.002012   0.000043   0.000277
     5  C    0.405834  -0.006637  -0.000050   0.000352
     6  H   -0.032771   0.007739   0.000002   0.000007
     7  H    0.594715   0.000154   0.000000  -0.000001
     8  Cl   0.000154  16.912215   0.000231   0.002880
     9  F    0.000000   0.000231   9.025622  -0.022306
    10  H   -0.000001   0.002880  -0.022306   0.584042
 Mulliken atomic charges:
              1
     1  C    0.401567
     2  C   -0.217807
     3  C   -0.075667
     4  H    0.037446
     5  C    0.010815
     6  H    0.068175
     7  H    0.053868
     8  Cl  -0.066162
     9  F   -0.272827
    10  H    0.060592
 Sum of Mulliken atomic charges =   0.00000
 Mulliken charges with hydrogens summed into heavy atoms:
              1
     1  C    0.462159
     2  C   -0.217807
     3  C   -0.038221
     5  C    0.132858
     8  Cl  -0.066162
     9  F   -0.272827
 Sum of Mulliken charges with hydrogens summed into heavy atoms =   0.00000
 Electronic spatial extent (au):  <R**2>=            764.5075
 Charge=              0.0000 electrons
 Dipole moment (field-independent basis, Debye):
    X=              1.2781    Y=              2.5760    Z=              0.0000  Tot=              2.8757
 Quadrupole moment (field-independent basis, Debye-Ang):
   XX=            -36.7084   YY=            -41.3803   ZZ=            -44.3194
   XY=              1.8120   XZ=              0.0000   YZ=              0.0000
 Traceless Quadrupole moment (field-independent basis, Debye-Ang):
   XX=              4.0943   YY=             -0.5776   ZZ=             -3.5167
   XY=              1.8120   XZ=              0.0000   YZ=              0.0000
 Octapole moment (field-independent basis, Debye-Ang**2):
  XXX=             11.6933  YYY=             -0.0187  ZZZ=              0.0000  XYY=             -3.9921
  XXY=             -0.9217  XXZ=              0.0000  XZZ=              2.2639  YZZ=            -10.1524
  YYZ=              0.0000  XYZ=              0.0000
 Hexadecapole moment (field-independent basis, Debye-Ang**3):
 XXXX=           -322.8986 YYYY=           -505.6623 ZZZZ=            -47.0276 XXXY=             58.3777
 XXXZ=              0.0000 YYYX=             56.5437 YYYZ=              0.0000 ZZZX=              0.0000
 ZZZY=              0.0000 XXYY=           -146.4014 XXZZ=            -69.9068 YYZZ=           -106.7515
 XXYZ=              0.0000 YYXZ=              0.0000 ZZXY=             17.3202
 N-N= 2.646556380902D+02 E-N=-2.219516618630D+03  KE= 7.123007691119D+02
 Symmetry A'   KE= 6.561036395790D+02
 Symmetry A"   KE= 5.619712953288D+01
 Calling FoFJK, ICntrl=      2127 FMM=F ISym2X=1 I1Cent= 0 IOpClX= 0 NMat=1 NMatS=1 NMatT=0.
 ***** Axes restored to original set *****
 -------------------------------------------------------------------
 Center     Atomic                   Forces (Hartrees/Bohr)
 Number     Number              X              Y              Z
 -------------------------------------------------------------------
      1        6          -0.005555387    0.064824794    0.000000000
      2        6           0.014539514   -0.041901447    0.000000000
      3        6          -0.024664517    0.061418994    0.000000000
      4        1          -0.002387449   -0.011562237    0.000000000
      5        6          -0.021971371   -0.044890199    0.000000000
      6        1           0.000230542    0.008197702    0.000000000
      7        1           0.009009804    0.001923267    0.000000000
      8       17           0.008170304   -0.013676075    0.000000000
      9        9           0.030543852   -0.012986573    0.000000000
     10        1          -0.007915293   -0.011348227    0.000000000
 -------------------------------------------------------------------
 Cartesian Forces:  Max     0.064824794 RMS     0.022298778

 GradGradGradGradGradGradGradGradGradGradGradGradGradGradGradGradGradGrad
 Berny optimization.
 Internal  Forces:  Max     0.043612677 RMS     0.015175157
 Search for a local minimum.
 Step number   1 out of a maximum of   43
 All quantities printed in internal units (Hartrees-Bohrs-Radians)
 Mixed Optimization -- RFO/linear search
 Second derivative matrix not updated -- first step.
     Eigenvalues ---    0.00237   0.01459   0.01463   0.02681   0.02681
     Eigenvalues ---    0.02681   0.02681   0.16000   0.16000   0.16000
     Eigenvalues ---    0.16000   0.22000   0.22000   0.25000   0.25000
     Eigenvalues ---    0.28519   0.29539   0.37230   0.37230   0.37230
     Eigenvalues ---    0.37230   0.53930   0.53930   0.550211000.00000
     Eigenvalues --- 1000.000001000.000001000.000001000.000001000.00000
     Eigenvalues --- 1000.000001000.000001000.00000
 RFO step:  Lambda=-2.03111351D-02 EMin= 2.36824121D-03
 Linear search not attempted -- first point.
 Iteration  1 RMS(Cart)=  0.06626762 RMS(Int)=  0.00201423
 Iteration  2 RMS(Cart)=  0.00279747 RMS(Int)=  0.00000146
 Iteration  3 RMS(Cart)=  0.00000183 RMS(Int)=  0.00000000
 Iteration  4 RMS(Cart)=  0.00000000 RMS(Int)=  0.00000000
 ClnCor:  largest displacement from symmetrization is 4.44D-16 for atom     7.
 Variable       Old X    -DE/DX   Delta X   Delta X   Delta X     New X
                                 (Linear)    (Quad)   (Total)
    R1        2.56096  -0.04361   0.00000  -0.07793  -0.07793   2.48302
    R2        2.55113  -0.03054   0.00000  -0.05354  -0.05354   2.49759
    R3        2.02201   0.00590   0.00000   0.01501   0.01501   2.03702
    R4        2.91018  -0.03978   0.00000  -0.13022  -0.13022   2.77996
    R5        3.32592  -0.01593   0.00000  -0.05045  -0.05045   3.27546
    R6        2.02201   0.00883   0.00000   0.02250   0.02250   2.04451
    R7        2.56096  -0.03645   0.00000  -0.06514  -0.06514   2.49582
    R8        2.02201   0.00702   0.00000   0.01788   0.01788   2.03988
    R9        2.02201   0.00900   0.00000   0.02292   0.02292   2.04493
    A1        2.09241   0.01365   0.00000   0.05680   0.05680   2.14922
    A2        2.09836   0.00583   0.00000   0.04178   0.04178   2.14014
    A3        2.09241  -0.01948   0.00000  -0.09859  -0.09859   1.99383
    A4        2.09241   0.00426   0.00000   0.01575   0.01575   2.10817
    A5        2.09836  -0.00168   0.00000  -0.00622  -0.00622   2.09214
    A6        2.09241  -0.00258   0.00000  -0.00953  -0.00953   2.08288
    A7        2.09241  -0.01764   0.00000  -0.08435  -0.08435   2.00806
    A8        2.09836   0.01944   0.00000   0.08088   0.08088   2.17924
    A9        2.09241  -0.00180   0.00000   0.00347   0.00347   2.09588
   A10        2.09836   0.00439   0.00000   0.02433   0.02433   2.12269
   A11        2.09241  -0.00020   0.00000  -0.00108  -0.00108   2.09133
   A12        2.09241  -0.00419   0.00000  -0.02325  -0.02325   2.06917
    D1        3.14159   0.00000   0.00000   0.00000   0.00000   3.14159
    D2        0.00000   0.00000   0.00000   0.00000   0.00000   0.00000
    D3        0.00000   0.00000   0.00000   0.00000   0.00000   0.00000
    D4        3.14159   0.00000   0.00000   0.00000   0.00000   3.14159
    D5        0.00000   0.00000   0.00000   0.00000   0.00000   0.00000
    D6        3.14159   0.00000   0.00000   0.00000   0.00000   3.14159
    D7        3.14159   0.00000   0.00000   0.00000   0.00000   3.14159
    D8        0.00000   0.00000   0.00000   0.00000   0.00000   0.00000
    D9        0.00000   0.00000   0.00000   0.00000   0.00000   0.00000
   D10        3.14159   0.00000   0.00000   0.00000   0.00000   3.14159
   D11        3.14159   0.00000   0.00000   0.00000   0.00000   3.14159
   D12        0.00000   0.00000   0.00000   0.00000   0.00000   0.00000
         Item               Value     Threshold  Converged?
 Maximum Force            0.043613     0.000450     NO 
 RMS     Force            0.015175     0.000300     NO 
 Maximum Displacement     0.204407     0.001800     NO 
 RMS     Displacement     0.066825     0.001200     NO 
 Predicted change in Energy=-1.080689D-02
 GradGradGradGradGradGradGradGradGradGradGradGradGradGradGradGradGradGrad

                          Input orientation:                          
 ---------------------------------------------------------------------
 Center     Atomic      Atomic             Coordinates (Angstroms)
 Number     Number       Type             X           Y           Z
 ---------------------------------------------------------------------
      1          6           0       -2.068820   -1.665932    0.000000
      2          6           0       -1.427883   -0.518898    0.000000
      3          6           0        0.042638   -0.477989    0.000000
      4          1           0        0.527867   -1.444983    0.000000
      5          6           0        0.767126    0.626298    0.000000
      6          1           0        0.309027    1.603732    0.000000
      7          1           0        1.847300    0.561308    0.000000
      8         17           0       -2.318884    0.967859    0.000000
      9          9           0       -3.387358   -1.756874    0.000000
     10          1           0       -1.559709   -2.616075    0.000000
 ---------------------------------------------------------------------
                    Distance matrix (angstroms):
                    1          2          3          4          5
     1  C    0.000000
     2  C    1.313959   0.000000
     3  C    2.422698   1.471089   0.000000
     4  H    2.606071   2.163929   1.081908   0.000000
     5  C    3.646492   2.475789   1.320731   2.085053   0.000000
     6  H    4.042877   2.742701   2.098695   3.056559   1.079459
     7  H    4.505175   3.448720   2.082533   2.401272   1.082128
     8  Cl   2.645636   1.733301   2.768982   3.731729   3.104854
     9  F    1.321670   2.317785   3.660658   3.927628   4.789492
    10  H    1.077946   2.101317   2.671878   2.393624   3.990882
                    6          7          8          9         10
     6  H    0.000000
     7  H    1.858207   0.000000
     8  Cl   2.703747   4.185974   0.000000
     9  F    4.995691   5.724999   2.926740   0.000000
    10  H    4.615078   4.658699   3.663460   2.019536   0.000000
 Stoichiometry    C4H4ClF
 Framework group  CS[SG(C4H4ClF)]
 Deg. of freedom    17
 Full point group                 CS      NOp   2
 Largest Abelian subgroup         CS      NOp   2
 Largest concise Abelian subgroup C1      NOp   1
                         Standard orientation:                         
 ---------------------------------------------------------------------
 Center     Atomic      Atomic             Coordinates (Angstroms)
 Number     Number       Type             X           Y           Z
 ---------------------------------------------------------------------
      1          6           0       -1.106842    1.013750    0.000000
      2          6           0        0.000000    0.305661    0.000000
      3          6           0        1.315353    0.964409    0.000000
      4          1           0        1.286111    2.045922    0.000000
      5          6           0        2.475633    0.333472    0.000000
      6          1           0        2.533719   -0.744423    0.000000
      7          1           0        3.396925    0.901120    0.000000
      8         17           0       -0.082798   -1.425661    0.000000
      9          9           0       -2.311887    0.470908    0.000000
     10          1           0       -1.107074    2.091695    0.000000
 ---------------------------------------------------------------------
 Rotational constants (GHZ):      4.5583557      2.1855263      1.4772510
 Standard basis: CC-pVDZ (5D, 7F)
 There are    79 symmetry adapted basis functions of A'  symmetry.
 There are    29 symmetry adapted basis functions of A"  symmetry.
 Integral buffers will be    131072 words long.
 Raffenetti 1 integral format.
 Two-electron integral symmetry is turned on.
   108 basis functions,   264 primitive gaussians,   114 cartesian basis functions
    27 alpha electrons       27 beta electrons
       nuclear repulsion energy       269.3514763554 Hartrees.
 NAtoms=   10 NActive=   10 NUniq=   10 SFac= 7.50D-01 NAtFMM=   80 NAOKFM=F Big=F
 One-electron integrals computed using PRISM.
 NBasis=   108 RedAO= T  NBF=    79    29
 NBsUse=   108 1.00D-06 NBFU=    79    29
 Initial guess read from the read-write file.
 B after Tr=     0.000000    0.000000    0.000000
         Rot=    1.000000    0.000000    0.000000    0.000000 Ang=   0.00 deg.
 Initial guess orbital symmetries:
       Occupied  (A') (A') (A') (A') (A') (A') (A') (A') (A') (A")
                 (A') (A') (A') (A') (A') (A') (A') (A') (A") (A')
                 (A') (A') (A') (A") (A') (A") (A")
       Virtual   (A") (A') (A') (A") (A') (A') (A') (A') (A') (A')
                 (A') (A') (A') (A") (A') (A') (A") (A') (A') (A")
                 (A') (A") (A') (A") (A') (A') (A') (A') (A") (A")
                 (A') (A') (A') (A') (A") (A') (A") (A') (A") (A')
                 (A') (A") (A') (A") (A') (A') (A") (A') (A') (A')
                 (A") (A') (A') (A') (A') (A") (A") (A') (A") (A')
                 (A") (A') (A') (A") (A') (A') (A") (A') (A') (A')
                 (A') (A') (A') (A') (A') (A') (A") (A') (A") (A')
                 (A')
 Harris functional with IExCor=  205 diagonalized for initial guess.
 ExpMin= 1.22D-01 ExpMax= 1.28D+05 ExpMxC= 1.24D+03 IAcc=2 IRadAn=         0 AccDes= 0.00D+00
 HarFok:  IExCor=  205 AccDes= 0.00D+00 IRadAn=         0 IDoV= 1
 ScaDFX=  1.000000  1.000000  1.000000  1.000000
 FoFCou: FMM=F IPFlag=           0 FMFlag=      100000 FMFlg1=           0
         NFxFlg=           0 DoJE=T BraDBF=F KetDBF=T FulRan=T
         Omega=  0.000000  0.000000  1.000000  0.000000  0.000000 ICntrl=     500 IOpCl=  0
         NMat0=    1 NMatS0=    1 NMatT0=    0 NMatD0=    1 NMtDS0=    0 NMtDT0=    0
         I1Cent=           4 NGrid=           0.
 Petite list used in FoFCou.
 Requested convergence on RMS density matrix=1.00D-08 within 128 cycles.
 Requested convergence on MAX density matrix=1.00D-06.
 Requested convergence on             energy=1.00D-06.
 No special actions if energy rises.
 Keep R1 ints in memory in canonical form, NReq=22367630.
 SCF Done:  E(RHF) =  -712.703689084     A.U. after   14 cycles
             Convg  =    0.5827D-08             -V/T =  1.9999
 Calling FoFJK, ICntrl=      2127 FMM=F ISym2X=1 I1Cent= 0 IOpClX= 0 NMat=1 NMatS=1 NMatT=0.
 ***** Axes restored to original set *****
 -------------------------------------------------------------------
 Center     Atomic                   Forces (Hartrees/Bohr)
 Number     Number              X              Y              Z
 -------------------------------------------------------------------
      1        6          -0.009653125   -0.004178861    0.000000000
      2        6           0.006819033    0.001023601    0.000000000
      3        6          -0.004652218    0.003385371    0.000000000
      4        1          -0.000147700   -0.001457030    0.000000000
      5        6           0.004484961   -0.000588920    0.000000000
      6        1           0.001692706    0.001302163    0.000000000
      7        1          -0.000299480    0.001810396    0.000000000
      8       17          -0.001640804    0.002089404    0.000000000
      9        9           0.004551346   -0.001905222    0.000000000
     10        1          -0.001154720   -0.001480902    0.000000000
 -------------------------------------------------------------------
 Cartesian Forces:  Max     0.009653125 RMS     0.002925520

 GradGradGradGradGradGradGradGradGradGradGradGradGradGradGradGradGradGrad
 Berny optimization.
 Using GEDIIS/GDIIS optimizer.
 Internal  Forces:  Max     0.009655797 RMS     0.002762605
 Search for a local minimum.
 Step number   2 out of a maximum of   43
 All quantities printed in internal units (Hartrees-Bohrs-Radians)
 Mixed Optimization -- RFO/linear search
 Update second derivatives using D2CorX and points    1    2
 DE= -1.07D-02 DEPred=-1.08D-02 R= 9.91D-01
 SS=  1.41D+00  RLast= 2.53D-01 DXNew= 5.0454D-01 7.5975D-01
 Trust test= 9.91D-01 RLast= 2.53D-01 DXMaxT set to 5.05D-01
 Use linear search instead of GDIIS.
     Eigenvalues ---    0.00237   0.01466   0.01515   0.02681   0.02681
     Eigenvalues ---    0.02681   0.02681   0.15397   0.16000   0.16000
     Eigenvalues ---    0.16114   0.20293   0.22037   0.24961   0.25005
     Eigenvalues ---    0.28966   0.30470   0.37103   0.37230   0.37230
     Eigenvalues ---    0.37284   0.53700   0.54139   0.617601000.00000
     Eigenvalues --- 1000.000001000.000001000.000001000.000001000.00000
     Eigenvalues --- 1000.000001000.000001000.00000
 RFO step:  Lambda=-7.88342694D-04 EMin= 2.36824121D-03
 Quartic linear search produced a step of  0.01651.
 Iteration  1 RMS(Cart)=  0.02735427 RMS(Int)=  0.00025345
 Iteration  2 RMS(Cart)=  0.00032122 RMS(Int)=  0.00000001
 Iteration  3 RMS(Cart)=  0.00000002 RMS(Int)=  0.00000000
 ClnCor:  largest displacement from symmetrization is 3.48D-11 for atom     9.
 Variable       Old X    -DE/DX   Delta X   Delta X   Delta X     New X
                                 (Linear)    (Quad)   (Total)
    R1        2.48302   0.00966  -0.00129   0.01684   0.01556   2.49858
    R2        2.49759  -0.00441  -0.00088  -0.00905  -0.00993   2.48766
    R3        2.03702   0.00076   0.00025   0.00231   0.00256   2.03958
    R4        2.77996   0.00120  -0.00215   0.00225   0.00010   2.78006
    R5        3.27546   0.00264  -0.00083   0.00826   0.00742   3.28289
    R6        2.04451   0.00124   0.00037   0.00373   0.00410   2.04861
    R7        2.49582   0.00533  -0.00108   0.00893   0.00785   2.50367
    R8        2.03988   0.00046   0.00030   0.00155   0.00184   2.04172
    R9        2.04493  -0.00041   0.00038  -0.00074  -0.00036   2.04457
    A1        2.14922   0.00252   0.00094   0.01242   0.01336   2.16258
    A2        2.14014   0.00049   0.00069   0.00575   0.00644   2.14658
    A3        1.99383  -0.00301  -0.00163  -0.01817  -0.01980   1.97403
    A4        2.10817   0.00121   0.00026   0.00516   0.00542   2.11358
    A5        2.09214  -0.00115  -0.00010  -0.00477  -0.00487   2.08727
    A6        2.08288  -0.00006  -0.00016  -0.00039  -0.00055   2.08233
    A7        2.00806  -0.00421  -0.00139  -0.02189  -0.02329   1.98478
    A8        2.17924   0.00681   0.00134   0.03250   0.03384   2.21308
    A9        2.09588  -0.00260   0.00006  -0.01061  -0.01055   2.08533
   A10        2.12269   0.00162   0.00040   0.01053   0.01093   2.13362
   A11        2.09133   0.00102  -0.00002   0.00644   0.00642   2.09775
   A12        2.06917  -0.00264  -0.00038  -0.01697  -0.01735   2.05181
    D1        3.14159   0.00000   0.00000   0.00000   0.00000   3.14159
    D2        0.00000   0.00000   0.00000   0.00000   0.00000   0.00000
    D3        0.00000   0.00000   0.00000   0.00000   0.00000   0.00000
    D4        3.14159   0.00000   0.00000   0.00000   0.00000   3.14159
    D5        0.00000   0.00000   0.00000   0.00000   0.00000   0.00000
    D6        3.14159   0.00000   0.00000   0.00000   0.00000   3.14159
    D7        3.14159   0.00000   0.00000   0.00000   0.00000   3.14159
    D8        0.00000   0.00000   0.00000   0.00000   0.00000   0.00000
    D9        0.00000   0.00000   0.00000   0.00000   0.00000   0.00000
   D10        3.14159   0.00000   0.00000   0.00000   0.00000   3.14159
   D11        3.14159   0.00000   0.00000   0.00000   0.00000   3.14159
   D12        0.00000   0.00000   0.00000   0.00000   0.00000   0.00000
         Item               Value     Threshold  Converged?
 Maximum Force            0.009656     0.000450     NO 
 RMS     Force            0.002763     0.000300     NO 
 Maximum Displacement     0.093719     0.001800     NO 
 RMS     Displacement     0.027308     0.001200     NO 
 Predicted change in Energy=-4.023557D-04
 GradGradGradGradGradGradGradGradGradGradGradGradGradGradGradGradGradGrad

                          Input orientation:                          
 ---------------------------------------------------------------------
 Center     Atomic      Atomic             Coordinates (Angstroms)
 Number     Number       Type             X           Y           Z
 ---------------------------------------------------------------------
      1          6           0       -2.075809   -1.673653    0.000000
      2          6           0       -1.437577   -0.515704    0.000000
      3          6           0        0.032447   -0.458280    0.000000
      4          1           0        0.506935   -1.433006    0.000000
      5          6           0        0.784069    0.632769    0.000000
      6          1           0        0.358620    1.625910    0.000000
      7          1           0        1.862861    0.550320    0.000000
      8         17           0       -2.346465    0.964799    0.000000
      9          9           0       -3.387126   -1.789398    0.000000
     10          1           0       -1.566652   -2.625310    0.000000
 ---------------------------------------------------------------------
                    Distance matrix (angstroms):
                    1          2          3          4          5
     1  C    0.000000
     2  C    1.322190   0.000000
     3  C    2.433490   1.471145   0.000000
     4  H    2.593931   2.150016   1.084080   0.000000
     5  C    3.674029   2.500940   1.324887   2.084281   0.000000
     6  H    4.100435   2.795145   2.109559   3.062509   1.080433
     7  H    4.523183   3.468328   2.089903   2.402524   1.081938
     8  Cl   2.652298   1.737230   2.772070   3.727111   3.148093
     9  F    1.316415   2.328742   3.669516   3.910335   4.823460
    10  H    1.079301   2.113551   2.693165   2.391935   4.017583
                    6          7          8          9         10
     6  H    0.000000
     7  H    1.849225   0.000000
     8  Cl   2.784700   4.229683   0.000000
     9  F    5.069018   5.747751   2.944245   0.000000
    10  H    4.666856   4.673991   3.673825   2.003215   0.000000
 Stoichiometry    C4H4ClF
 Framework group  CS[SG(C4H4ClF)]
 Deg. of freedom    17
 Full point group                 CS      NOp   2
 Largest Abelian subgroup         CS      NOp   2
 Largest concise Abelian subgroup C1      NOp   1
                         Standard orientation:                         
 ---------------------------------------------------------------------
 Center     Atomic      Atomic             Coordinates (Angstroms)
 Number     Number       Type             X           Y           Z
 ---------------------------------------------------------------------
      1          6           0       -1.116069    1.008206    0.000000
      2          6           0        0.000000    0.299278    0.000000
      3          6           0        1.316843    0.955168    0.000000
      4          1           0        1.264691    2.037992    0.000000
      5          6           0        2.500218    0.359391    0.000000
      6          1           0        2.604226   -0.716024    0.000000
      7          1           0        3.406740    0.949990    0.000000
      8         17           0       -0.085836   -1.435829    0.000000
      9          9           0       -2.321741    0.479715    0.000000
     10          1           0       -1.126733    2.087454    0.000000
 ---------------------------------------------------------------------
 Rotational constants (GHZ):      4.5166991      2.1572774      1.4599651
 Standard basis: CC-pVDZ (5D, 7F)
 There are    79 symmetry adapted basis functions of A'  symmetry.
 There are    29 symmetry adapted basis functions of A"  symmetry.
 Integral buffers will be    131072 words long.
 Raffenetti 1 integral format.
 Two-electron integral symmetry is turned on.
   108 basis functions,   264 primitive gaussians,   114 cartesian basis functions
    27 alpha electrons       27 beta electrons
       nuclear repulsion energy       268.2956485457 Hartrees.
 NAtoms=   10 NActive=   10 NUniq=   10 SFac= 7.50D-01 NAtFMM=   80 NAOKFM=F Big=F
 One-electron integrals computed using PRISM.
 NBasis=   108 RedAO= T  NBF=    79    29
 NBsUse=   108 1.00D-06 NBFU=    79    29
 Initial guess read from the read-write file.
 B after Tr=     0.000000    0.000000    0.000000
         Rot=    1.000000    0.000000    0.000000    0.000000 Ang=   0.00 deg.
 Initial guess orbital symmetries:
       Occupied  (A') (A') (A') (A') (A') (A') (A') (A') (A') (A")
                 (A') (A') (A') (A') (A') (A') (A') (A') (A") (A')
                 (A') (A') (A") (A') (A') (A") (A")
       Virtual   (A") (A') (A') (A') (A") (A') (A') (A') (A') (A')
                 (A') (A') (A") (A') (A') (A") (A') (A') (A') (A")
                 (A') (A") (A') (A") (A') (A') (A') (A") (A') (A")
                 (A') (A') (A') (A') (A") (A') (A") (A') (A") (A')
                 (A') (A") (A') (A") (A') (A') (A") (A') (A') (A')
                 (A") (A') (A') (A') (A") (A') (A") (A') (A") (A')
                 (A") (A') (A') (A") (A') (A") (A') (A') (A') (A')
                 (A') (A') (A') (A') (A') (A') (A") (A') (A") (A')
                 (A')
 Harris functional with IExCor=  205 diagonalized for initial guess.
 ExpMin= 1.22D-01 ExpMax= 1.28D+05 ExpMxC= 1.24D+03 IAcc=2 IRadAn=         0 AccDes= 0.00D+00
 HarFok:  IExCor=  205 AccDes= 0.00D+00 IRadAn=         0 IDoV= 1
 ScaDFX=  1.000000  1.000000  1.000000  1.000000
 FoFCou: FMM=F IPFlag=           0 FMFlag=      100000 FMFlg1=           0
         NFxFlg=           0 DoJE=T BraDBF=F KetDBF=T FulRan=T
         Omega=  0.000000  0.000000  1.000000  0.000000  0.000000 ICntrl=     500 IOpCl=  0
         NMat0=    1 NMatS0=    1 NMatT0=    0 NMatD0=    1 NMtDS0=    0 NMtDT0=    0
         I1Cent=           4 NGrid=           0.
 Petite list used in FoFCou.
 Requested convergence on RMS density matrix=1.00D-08 within 128 cycles.
 Requested convergence on MAX density matrix=1.00D-06.
 Requested convergence on             energy=1.00D-06.
 No special actions if energy rises.
 Keep R1 ints in memory in canonical form, NReq=22367630.
 SCF Done:  E(RHF) =  -712.703995482     A.U. after   11 cycles
             Convg  =    0.5954D-08             -V/T =  2.0000
 Calling FoFJK, ICntrl=      2127 FMM=F ISym2X=1 I1Cent= 0 IOpClX= 0 NMat=1 NMatS=1 NMatT=0.
 ***** Axes restored to original set *****
 -------------------------------------------------------------------
 Center     Atomic                   Forces (Hartrees/Bohr)
 Number     Number              X              Y              Z
 -------------------------------------------------------------------
      1        6           0.000618106    0.000544381    0.000000000
      2        6           0.000294134   -0.002518105    0.000000000
      3        6          -0.000128697    0.000697978    0.000000000
      4        1           0.000372933   -0.000028906    0.000000000
      5        6          -0.001490588   -0.001749560    0.000000000
      6        1          -0.000068317    0.000380445    0.000000000
      7        1          -0.000351464    0.000039094    0.000000000
      8       17          -0.000307585    0.000997064    0.000000000
      9        9           0.000241279    0.001220215    0.000000000
     10        1           0.000820200    0.000417394    0.000000000
 -------------------------------------------------------------------
 Cartesian Forces:  Max     0.002518105 RMS     0.000748098

 GradGradGradGradGradGradGradGradGradGradGradGradGradGradGradGradGradGrad
 Berny optimization.
 Using GEDIIS/GDIIS optimizer.
 Internal  Forces:  Max     0.002721695 RMS     0.000870975
 Search for a local minimum.
 Step number   3 out of a maximum of   43
 All quantities printed in internal units (Hartrees-Bohrs-Radians)
 Mixed Optimization -- En-DIIS/RFO-DIIS
 Update second derivatives using D2CorX and points    1    2    3
 DE= -3.06D-04 DEPred=-4.02D-04 R= 7.62D-01
 SS=  1.41D+00  RLast= 5.84D-02 DXNew= 8.4853D-01 1.7519D-01
 Trust test= 7.62D-01 RLast= 5.84D-02 DXMaxT set to 5.05D-01
 Use linear search instead of GDIIS.
     Eigenvalues ---    0.00237   0.01463   0.01521   0.02681   0.02681
     Eigenvalues ---    0.02681   0.02681   0.15272   0.16000   0.16019
     Eigenvalues ---    0.16605   0.20956   0.22719   0.24926   0.25212
     Eigenvalues ---    0.29507   0.30456   0.36941   0.37230   0.37247
     Eigenvalues ---    0.37326   0.52869   0.54065   0.680731000.00000
     Eigenvalues --- 1000.000001000.000001000.000001000.000001000.00000
     Eigenvalues --- 1000.000001000.000001000.00000
 RFO step:  Lambda=-2.60969532D-05 EMin= 2.36824121D-03
 Quartic linear search produced a step of -0.18476.
 Iteration  1 RMS(Cart)=  0.00573271 RMS(Int)=  0.00001179
 Iteration  2 RMS(Cart)=  0.00001397 RMS(Int)=  0.00000000
 Iteration  3 RMS(Cart)=  0.00000000 RMS(Int)=  0.00000000
 ClnCor:  largest displacement from symmetrization is 5.79D-13 for atom     8.
 Variable       Old X    -DE/DX   Delta X   Delta X   Delta X     New X
                                 (Linear)    (Quad)   (Total)
    R1        2.49858  -0.00272  -0.00287  -0.00034  -0.00321   2.49536
    R2        2.48766  -0.00035   0.00183  -0.00245  -0.00061   2.48705
    R3        2.03958   0.00002  -0.00047   0.00053   0.00006   2.03964
    R4        2.78006  -0.00169  -0.00002  -0.00422  -0.00424   2.77582
    R5        3.28289   0.00101  -0.00137   0.00468   0.00331   3.28620
    R6        2.04861   0.00019  -0.00076   0.00121   0.00045   2.04907
    R7        2.50367  -0.00218  -0.00145  -0.00127  -0.00272   2.50095
    R8        2.04172   0.00038  -0.00034   0.00115   0.00081   2.04253
    R9        2.04457  -0.00035   0.00007  -0.00097  -0.00090   2.04366
    A1        2.16258  -0.00136  -0.00247  -0.00243  -0.00490   2.15768
    A2        2.14658  -0.00026  -0.00119  -0.00111  -0.00230   2.14428
    A3        1.97403   0.00162   0.00366   0.00354   0.00720   1.98123
    A4        2.11358   0.00032  -0.00100   0.00215   0.00115   2.11473
    A5        2.08727   0.00027   0.00090  -0.00015   0.00075   2.08801
    A6        2.08233  -0.00058   0.00010  -0.00200  -0.00189   2.08044
    A7        1.98478   0.00107   0.00430  -0.00018   0.00413   1.98890
    A8        2.21308  -0.00148  -0.00625   0.00142  -0.00483   2.20824
    A9        2.08533   0.00041   0.00195  -0.00124   0.00070   2.08604
   A10        2.13362   0.00011  -0.00202   0.00281   0.00079   2.13441
   A11        2.09775  -0.00004  -0.00119   0.00117  -0.00002   2.09774
   A12        2.05181  -0.00007   0.00321  -0.00398  -0.00077   2.05104
    D1        3.14159   0.00000   0.00000   0.00000   0.00000   3.14159
    D2        0.00000   0.00000   0.00000   0.00000   0.00000   0.00000
    D3        0.00000   0.00000   0.00000   0.00000   0.00000   0.00000
    D4        3.14159   0.00000   0.00000   0.00000   0.00000   3.14159
    D5        0.00000   0.00000   0.00000   0.00000   0.00000   0.00000
    D6        3.14159   0.00000   0.00000   0.00000   0.00000   3.14159
    D7        3.14159   0.00000   0.00000   0.00000   0.00000   3.14159
    D8        0.00000   0.00000   0.00000   0.00000   0.00000   0.00000
    D9        0.00000   0.00000   0.00000   0.00000   0.00000   0.00000
   D10        3.14159   0.00000   0.00000   0.00000   0.00000   3.14159
   D11        3.14159   0.00000   0.00000   0.00000   0.00000   3.14159
   D12        0.00000   0.00000   0.00000   0.00000   0.00000   0.00000
         Item               Value     Threshold  Converged?
 Maximum Force            0.002722     0.000450     NO 
 RMS     Force            0.000871     0.000300     NO 
 Maximum Displacement     0.017116     0.001800     NO 
 RMS     Displacement     0.005736     0.001200     NO 
 Predicted change in Energy=-2.902866D-05
 GradGradGradGradGradGradGradGradGradGradGradGradGradGradGradGradGradGrad

                          Input orientation:                          
 ---------------------------------------------------------------------
 Center     Atomic      Atomic             Coordinates (Angstroms)
 Number     Number       Type             X           Y           Z
 ---------------------------------------------------------------------
      1          6           0       -2.074354   -1.673524    0.000000
      2          6           0       -1.434760   -0.518270    0.000000
      3          6           0        0.033063   -0.462019    0.000000
      4          1           0        0.510956   -1.435346    0.000000
      5          6           0        0.779403    0.630907    0.000000
      6          1           0        0.350502    1.623028    0.000000
      7          1           0        1.858044    0.552891    0.000000
      8         17           0       -2.340657    0.966116    0.000000
      9          9           0       -3.386103   -1.780341    0.000000
     10          1           0       -1.564790   -2.624998    0.000000
 ---------------------------------------------------------------------
                    Distance matrix (angstroms):
                    1          2          3          4          5
     1  C    0.000000
     2  C    1.320490   0.000000
     3  C    2.430834   1.468901   0.000000
     4  H    2.596258   2.151009   1.084319   0.000000
     5  C    3.668014   2.494619   1.323446   2.083618   0.000000
     6  H    4.092332   2.787888   2.109073   3.062580   1.080861
     7  H    4.518925   3.462650   2.088204   2.401610   1.081460
     8  Cl   2.653040   1.738980   2.770220   3.728098   3.138015
     9  F    1.316090   2.323911   3.664515   3.912299   4.813060
    10  H    1.079332   2.110737   2.689166   2.392487   4.012001
                    6          7          8          9         10
     6  H    0.000000
     7  H    1.848751   0.000000
     8  Cl   2.770175   4.218987   0.000000
     9  F    5.054220   5.739778   2.938705   0.000000
    10  H    4.659836   4.670628   3.673972   2.007641   0.000000
 Stoichiometry    C4H4ClF
 Framework group  CS[SG(C4H4ClF)]
 Deg. of freedom    17
 Full point group                 CS      NOp   2
 Largest Abelian subgroup         CS      NOp   2
 Largest concise Abelian subgroup C1      NOp   1
                         Standard orientation:                         
 ---------------------------------------------------------------------
 Center     Atomic      Atomic             Coordinates (Angstroms)
 Number     Number       Type             X           Y           Z
 ---------------------------------------------------------------------
      1          6           0       -1.113872    1.012053    0.000000
      2          6           0        0.000000    0.302840    0.000000
      3          6           0        1.316288    0.954804    0.000000
      4          1           0        1.271003    2.038176    0.000000
      5          6           0        2.494147    0.351351    0.000000
      6          1           0        2.591450   -0.725122    0.000000
      7          1           0        3.404401    0.935297    0.000000
      8         17           0       -0.086493   -1.433987    0.000000
      9          9           0       -2.317218    0.479087    0.000000
     10          1           0       -1.120893    2.091362    0.000000
 ---------------------------------------------------------------------
 Rotational constants (GHZ):      4.5233419      2.1655889      1.4644641
 Standard basis: CC-pVDZ (5D, 7F)
 There are    79 symmetry adapted basis functions of A'  symmetry.
 There are    29 symmetry adapted basis functions of A"  symmetry.
 Integral buffers will be    131072 words long.
 Raffenetti 1 integral format.
 Two-electron integral symmetry is turned on.
   108 basis functions,   264 primitive gaussians,   114 cartesian basis functions
    27 alpha electrons       27 beta electrons
       nuclear repulsion energy       268.5544485249 Hartrees.
 NAtoms=   10 NActive=   10 NUniq=   10 SFac= 7.50D-01 NAtFMM=   80 NAOKFM=F Big=F
 One-electron integrals computed using PRISM.
 NBasis=   108 RedAO= T  NBF=    79    29
 NBsUse=   108 1.00D-06 NBFU=    79    29
 Initial guess read from the read-write file.
 B after Tr=     0.000000    0.000000    0.000000
         Rot=    1.000000    0.000000    0.000000    0.000000 Ang=   0.00 deg.
 Initial guess orbital symmetries:
       Occupied  (A') (A') (A') (A') (A') (A') (A') (A') (A') (A")
                 (A') (A') (A') (A') (A') (A') (A') (A') (A") (A')
                 (A') (A') (A") (A') (A') (A") (A")
       Virtual   (A") (A') (A') (A') (A") (A') (A') (A') (A') (A')
                 (A') (A') (A") (A') (A') (A") (A') (A') (A') (A")
                 (A') (A") (A') (A") (A') (A') (A') (A") (A') (A")
                 (A') (A') (A') (A') (A") (A') (A") (A') (A") (A')
                 (A') (A") (A') (A") (A') (A') (A") (A') (A') (A')
                 (A") (A') (A') (A') (A") (A') (A") (A') (A") (A')
                 (A") (A') (A') (A") (A') (A") (A') (A') (A') (A')
                 (A') (A') (A') (A') (A') (A') (A") (A') (A") (A')
                 (A')
 Requested convergence on RMS density matrix=1.00D-08 within 128 cycles.
 Requested convergence on MAX density matrix=1.00D-06.
 Requested convergence on             energy=1.00D-06.
 No special actions if energy rises.
 Keep R1 ints in memory in canonical form, NReq=22367630.
 SCF Done:  E(RHF) =  -712.704025507     A.U. after   10 cycles
             Convg  =    0.3976D-08             -V/T =  2.0000
 Calling FoFJK, ICntrl=      2127 FMM=F ISym2X=1 I1Cent= 0 IOpClX= 0 NMat=1 NMatS=1 NMatT=0.
 ***** Axes restored to original set *****
 -------------------------------------------------------------------
 Center     Atomic                   Forces (Hartrees/Bohr)
 Number     Number              X              Y              Z
 -------------------------------------------------------------------
      1        6          -0.000374028    0.000128219    0.000000000
      2        6           0.000113178   -0.000498044    0.000000000
      3        6           0.000143870   -0.000007522    0.000000000
      4        1           0.000093224    0.000083308    0.000000000
      5        6          -0.000085891   -0.000006841    0.000000000
      6        1           0.000071062   -0.000020590    0.000000000
      7        1           0.000071413    0.000062729    0.000000000
      8       17          -0.000128294    0.000147386    0.000000000
      9        9          -0.000001940   -0.000008647    0.000000000
     10        1           0.000097406    0.000120000    0.000000000
 -------------------------------------------------------------------
 Cartesian Forces:  Max     0.000498044 RMS     0.000133873

 GradGradGradGradGradGradGradGradGradGradGradGradGradGradGradGradGradGrad
 Berny optimization.
 Using GEDIIS/GDIIS optimizer.
 Internal  Forces:  Max     0.000354781 RMS     0.000116424
 Search for a local minimum.
 Step number   4 out of a maximum of   43
 All quantities printed in internal units (Hartrees-Bohrs-Radians)
 Mixed Optimization -- En-DIIS/RFO-DIIS
 Swaping is turned off.
 Update second derivatives using D2CorX and points    1    2    3    4
 DE= -3.00D-05 DEPred=-2.90D-05 R= 1.03D+00
 SS=  1.41D+00  RLast= 1.33D-02 DXNew= 8.4853D-01 3.9954D-02
 Trust test= 1.03D+00 RLast= 1.33D-02 DXMaxT set to 5.05D-01
     Eigenvalues ---    0.00237   0.01464   0.01519   0.02681   0.02681
     Eigenvalues ---    0.02681   0.02681   0.14973   0.15776   0.16002
     Eigenvalues ---    0.16064   0.21121   0.22847   0.23741   0.25197
     Eigenvalues ---    0.29216   0.32232   0.37111   0.37224   0.37252
     Eigenvalues ---    0.37551   0.53184   0.54068   0.685731000.00000
     Eigenvalues --- 1000.000001000.000001000.000001000.000001000.00000
     Eigenvalues --- 1000.000001000.000001000.00000
 En-DIIS/RFO-DIIS IScMMF=        0 using points:     4    3
 RFO step:  Lambda=-9.18177801D-07.
 DIIS coeffs:      1.02183     -0.02183
 Iteration  1 RMS(Cart)=  0.00111810 RMS(Int)=  0.00000051
 Iteration  2 RMS(Cart)=  0.00000068 RMS(Int)=  0.00000000
 ClnCor:  largest displacement from symmetrization is 9.47D-13 for atom     7.
 Variable       Old X    -DE/DX   Delta X   Delta X   Delta X     New X
                                  (DIIS)     (GDIIS)  (Total)
    R1        2.49536  -0.00007  -0.00007  -0.00021  -0.00028   2.49508
    R2        2.48705   0.00000  -0.00001  -0.00004  -0.00006   2.48699
    R3        2.03964  -0.00006   0.00000  -0.00015  -0.00015   2.03949
    R4        2.77582   0.00030  -0.00009   0.00093   0.00083   2.77665
    R5        3.28620   0.00019   0.00007   0.00070   0.00078   3.28697
    R6        2.04907  -0.00003   0.00001  -0.00007  -0.00006   2.04901
    R7        2.50095   0.00006  -0.00006   0.00005  -0.00001   2.50094
    R8        2.04253  -0.00005   0.00002  -0.00010  -0.00009   2.04244
    R9        2.04366   0.00007  -0.00002   0.00018   0.00016   2.04382
    A1        2.15768   0.00011  -0.00011   0.00049   0.00038   2.15806
    A2        2.14428  -0.00020  -0.00005  -0.00119  -0.00124   2.14304
    A3        1.98123   0.00009   0.00016   0.00070   0.00086   1.98209
    A4        2.11473   0.00035   0.00003   0.00149   0.00151   2.11625
    A5        2.08801  -0.00023   0.00002  -0.00094  -0.00093   2.08709
    A6        2.08044  -0.00012  -0.00004  -0.00054  -0.00059   2.07985
    A7        1.98890   0.00015   0.00009   0.00089   0.00098   1.98989
    A8        2.20824  -0.00005  -0.00011  -0.00023  -0.00034   2.20791
    A9        2.08604  -0.00010   0.00002  -0.00066  -0.00065   2.08539
   A10        2.13441   0.00003   0.00002   0.00025   0.00026   2.13467
   A11        2.09774   0.00005   0.00000   0.00035   0.00035   2.09809
   A12        2.05104  -0.00008  -0.00002  -0.00059  -0.00061   2.05043
    D1        3.14159   0.00000   0.00000   0.00000   0.00000   3.14159
    D2        0.00000   0.00000   0.00000   0.00000   0.00000   0.00000
    D3        0.00000   0.00000   0.00000   0.00000   0.00000   0.00000
    D4        3.14159   0.00000   0.00000   0.00000   0.00000   3.14159
    D5        0.00000   0.00000   0.00000   0.00000   0.00000   0.00000
    D6        3.14159   0.00000   0.00000   0.00000   0.00000   3.14159
    D7        3.14159   0.00000   0.00000   0.00000   0.00000   3.14159
    D8        0.00000   0.00000   0.00000   0.00000   0.00000   0.00000
    D9        0.00000   0.00000   0.00000   0.00000   0.00000   0.00000
   D10        3.14159   0.00000   0.00000   0.00000   0.00000   3.14159
   D11        3.14159   0.00000   0.00000   0.00000   0.00000   3.14159
   D12        0.00000   0.00000   0.00000   0.00000   0.00000   0.00000
         Item               Value     Threshold  Converged?
 Maximum Force            0.000355     0.000450     YES
 RMS     Force            0.000116     0.000300     YES
 Maximum Displacement     0.003776     0.001800     NO 
 RMS     Displacement     0.001118     0.001200     YES
 Predicted change in Energy=-9.706666D-07
 GradGradGradGradGradGradGradGradGradGradGradGradGradGradGradGradGradGrad

                          Input orientation:                          
 ---------------------------------------------------------------------
 Center     Atomic      Atomic             Coordinates (Angstroms)
 Number     Number       Type             X           Y           Z
 ---------------------------------------------------------------------
      1          6           0       -2.075330   -1.673671    0.000000
      2          6           0       -1.434478   -0.519284    0.000000
      3          6           0        0.033765   -0.462485    0.000000
      4          1           0        0.512954   -1.435140    0.000000
      5          6           0        0.779337    0.630958    0.000000
      6          1           0        0.350022    1.622850    0.000000
      7          1           0        1.858145    0.554065    0.000000
      8         17           0       -2.340256    0.965656    0.000000
      9          9           0       -3.387131   -1.779472    0.000000
     10          1           0       -1.565723   -2.625031    0.000000
 ---------------------------------------------------------------------
                    Distance matrix (angstroms):
                    1          2          3          4          5
     1  C    0.000000
     2  C    1.320341   0.000000
     3  C    2.432130   1.469342   0.000000
     4  H    2.599252   2.152042   1.084288   0.000000
     5  C    3.668848   2.494802   1.323441   2.083200   0.000000
     6  H    4.092601   2.788042   2.109180   3.062328   1.080815
     7  H    4.520513   3.463155   2.088477   2.401349   1.081544
     8  Cl   2.652590   1.739391   2.770481   3.728892   3.137497
     9  F    1.316061   2.323989   3.665650   3.915256   4.813484
    10  H    1.079252   2.109833   2.689790   2.395149   4.012577
                    6          7          8          9         10
     6  H    0.000000
     7  H    1.848441   0.000000
     8  Cl   2.769386   4.218528   0.000000
     9  F    5.053920   5.740933   2.937971   0.000000
    10  H    4.659890   4.672208   3.673273   2.008108   0.000000
 Stoichiometry    C4H4ClF
 Framework group  CS[SG(C4H4ClF)]
 Deg. of freedom    17
 Full point group                 CS      NOp   2
 Largest Abelian subgroup         CS      NOp   2
 Largest concise Abelian subgroup C1      NOp   1
                         Standard orientation:                         
 ---------------------------------------------------------------------
 Center     Atomic      Atomic             Coordinates (Angstroms)
 Number     Number       Type             X           Y           Z
 ---------------------------------------------------------------------
      1          6           0       -1.114261    1.012074    0.000000
      2          6           0        0.000000    0.303750    0.000000
      3          6           0        1.317196    0.954872    0.000000
      4          1           0        1.273832    2.038292    0.000000
      5          6           0        2.494372    0.350096    0.000000
      6          1           0        2.590742   -0.726414    0.000000
      7          1           0        3.405556    0.932746    0.000000
      8         17           0       -0.086864   -1.433471    0.000000
      9          9           0       -2.317395    0.478702    0.000000
     10          1           0       -1.120730    2.091307    0.000000
 ---------------------------------------------------------------------
 Rotational constants (GHZ):      4.5258907      2.1648391      1.4643881
 Standard basis: CC-pVDZ (5D, 7F)
 There are    79 symmetry adapted basis functions of A'  symmetry.
 There are    29 symmetry adapted basis functions of A"  symmetry.
 Integral buffers will be    131072 words long.
 Raffenetti 1 integral format.
 Two-electron integral symmetry is turned on.
   108 basis functions,   264 primitive gaussians,   114 cartesian basis functions
    27 alpha electrons       27 beta electrons
       nuclear repulsion energy       268.5446410507 Hartrees.
 NAtoms=   10 NActive=   10 NUniq=   10 SFac= 7.50D-01 NAtFMM=   80 NAOKFM=F Big=F
 One-electron integrals computed using PRISM.
 NBasis=   108 RedAO= T  NBF=    79    29
 NBsUse=   108 1.00D-06 NBFU=    79    29
 Initial guess read from the read-write file.
 B after Tr=     0.000000    0.000000    0.000000
         Rot=    1.000000    0.000000    0.000000    0.000000 Ang=   0.00 deg.
 Initial guess orbital symmetries:
       Occupied  (A') (A') (A') (A') (A') (A') (A') (A') (A') (A")
                 (A') (A') (A') (A') (A') (A') (A') (A') (A") (A')
                 (A') (A') (A") (A') (A') (A") (A")
       Virtual   (A") (A') (A') (A') (A") (A') (A') (A') (A') (A')
                 (A') (A') (A") (A') (A') (A") (A') (A') (A') (A")
                 (A') (A") (A') (A") (A') (A') (A') (A") (A') (A")
                 (A') (A') (A') (A') (A") (A') (A") (A') (A") (A')
                 (A') (A") (A') (A") (A') (A') (A") (A') (A') (A')
                 (A") (A') (A') (A') (A") (A') (A") (A') (A") (A')
                 (A") (A') (A') (A") (A') (A") (A') (A') (A') (A')
                 (A') (A') (A') (A') (A') (A') (A") (A') (A") (A')
                 (A')
 Requested convergence on RMS density matrix=1.00D-08 within 128 cycles.
 Requested convergence on MAX density matrix=1.00D-06.
 Requested convergence on             energy=1.00D-06.
 No special actions if energy rises.
 Keep R1 ints in memory in canonical form, NReq=22367630.
 SCF Done:  E(RHF) =  -712.704026527     A.U. after    8 cycles
             Convg  =    0.5004D-08             -V/T =  2.0000
 Calling FoFJK, ICntrl=      2127 FMM=F ISym2X=1 I1Cent= 0 IOpClX= 0 NMat=1 NMatS=1 NMatT=0.
 ***** Axes restored to original set *****
 -------------------------------------------------------------------
 Center     Atomic                   Forces (Hartrees/Bohr)
 Number     Number              X              Y              Z
 -------------------------------------------------------------------
      1        6          -0.000160026   -0.000003968    0.000000000
      2        6           0.000197064   -0.000048668    0.000000000
      3        6          -0.000074202   -0.000041180    0.000000000
      4        1          -0.000010335    0.000006001    0.000000000
      5        6          -0.000016845    0.000056397    0.000000000
      6        1           0.000019277   -0.000002621    0.000000000
      7        1           0.000008197    0.000001472    0.000000000
      8       17          -0.000040513    0.000079791    0.000000000
      9        9           0.000073564   -0.000025841    0.000000000
     10        1           0.000003819   -0.000021383    0.000000000
 -------------------------------------------------------------------
 Cartesian Forces:  Max     0.000197064 RMS     0.000055571

 GradGradGradGradGradGradGradGradGradGradGradGradGradGradGradGradGradGrad
 Berny optimization.
 Using GEDIIS/GDIIS optimizer.
 Internal  Forces:  Max     0.000089216 RMS     0.000033284
 Search for a local minimum.
 Step number   5 out of a maximum of   43
 All quantities printed in internal units (Hartrees-Bohrs-Radians)
 Mixed Optimization -- En-DIIS/RFO-DIIS
 Swaping is turned off.
 Update second derivatives using D2CorX and points    1    2    3    4    5
 DE= -1.02D-06 DEPred=-9.71D-07 R= 1.05D+00
 SS=  1.41D+00  RLast= 3.07D-03 DXNew= 8.4853D-01 9.2011D-03
 Trust test= 1.05D+00 RLast= 3.07D-03 DXMaxT set to 5.05D-01
     Eigenvalues ---    0.00237   0.01464   0.01518   0.02681   0.02681
     Eigenvalues ---    0.02681   0.02681   0.13679   0.15888   0.16051
     Eigenvalues ---    0.16263   0.20549   0.21137   0.23570   0.25170
     Eigenvalues ---    0.29149   0.34909   0.37101   0.37251   0.37371
     Eigenvalues ---    0.38169   0.53610   0.54141   0.694421000.00000
     Eigenvalues --- 1000.000001000.000001000.000001000.000001000.00000
     Eigenvalues --- 1000.000001000.000001000.00000
 En-DIIS/RFO-DIIS IScMMF=        0 using points:     5    4    3
 RFO step:  Lambda=-6.63345142D-08.
 DIIS coeffs:      1.05362     -0.05220     -0.00141
 Iteration  1 RMS(Cart)=  0.00018387 RMS(Int)=  0.00000002
 Iteration  2 RMS(Cart)=  0.00000003 RMS(Int)=  0.00000000
 ClnCor:  largest displacement from symmetrization is 8.00D-14 for atom    10.
 Variable       Old X    -DE/DX   Delta X   Delta X   Delta X     New X
                                  (DIIS)     (GDIIS)  (Total)
    R1        2.49508   0.00008  -0.00002   0.00014   0.00012   2.49521
    R2        2.48699  -0.00007   0.00000  -0.00017  -0.00017   2.48682
    R3        2.03949   0.00002  -0.00001   0.00006   0.00006   2.03955
    R4        2.77665  -0.00007   0.00004  -0.00032  -0.00028   2.77638
    R5        3.28697   0.00009   0.00005   0.00036   0.00040   3.28738
    R6        2.04901  -0.00001   0.00000  -0.00002  -0.00002   2.04899
    R7        2.50094   0.00005   0.00000   0.00008   0.00007   2.50101
    R8        2.04244  -0.00001   0.00000  -0.00002  -0.00002   2.04242
    R9        2.04382   0.00001   0.00001   0.00002   0.00003   2.04385
    A1        2.15806   0.00005   0.00001   0.00023   0.00024   2.15830
    A2        2.14304  -0.00002  -0.00007  -0.00009  -0.00016   2.14288
    A3        1.98209  -0.00003   0.00006  -0.00014  -0.00008   1.98200
    A4        2.11625   0.00004   0.00008   0.00023   0.00031   2.11656
    A5        2.08709  -0.00001  -0.00005  -0.00006  -0.00011   2.08698
    A6        2.07985  -0.00003  -0.00003  -0.00017  -0.00020   2.07965
    A7        1.98989   0.00000   0.00006  -0.00001   0.00004   1.98993
    A8        2.20791  -0.00001  -0.00002  -0.00004  -0.00007   2.20784
    A9        2.08539   0.00001  -0.00003   0.00005   0.00002   2.08541
   A10        2.13467   0.00002   0.00002   0.00017   0.00019   2.13485
   A11        2.09809  -0.00001   0.00002  -0.00004  -0.00002   2.09806
   A12        2.05043  -0.00001  -0.00003  -0.00013  -0.00016   2.05027
    D1        3.14159   0.00000   0.00000   0.00000   0.00000   3.14159
    D2        0.00000   0.00000   0.00000   0.00000   0.00000   0.00000
    D3        0.00000   0.00000   0.00000   0.00000   0.00000   0.00000
    D4        3.14159   0.00000   0.00000   0.00000   0.00000   3.14159
    D5        0.00000   0.00000   0.00000   0.00000   0.00000   0.00000
    D6        3.14159   0.00000   0.00000   0.00000   0.00000   3.14159
    D7        3.14159   0.00000   0.00000   0.00000   0.00000   3.14159
    D8        0.00000   0.00000   0.00000   0.00000   0.00000   0.00000
    D9        0.00000   0.00000   0.00000   0.00000   0.00000   0.00000
   D10        3.14159   0.00000   0.00000   0.00000   0.00000   3.14159
   D11        3.14159   0.00000   0.00000   0.00000   0.00000   3.14159
   D12        0.00000   0.00000   0.00000   0.00000   0.00000   0.00000
         Item               Value     Threshold  Converged?
 Maximum Force            0.000089     0.000450     YES
 RMS     Force            0.000033     0.000300     YES
 Maximum Displacement     0.000510     0.001800     YES
 RMS     Displacement     0.000184     0.001200     YES
 Predicted change in Energy=-6.510762D-08
 Optimization completed.
    -- Stationary point found.
                           ----------------------------
                           !   Optimized Parameters   !
                           ! (Angstroms and Degrees)  !
 --------------------------                            --------------------------
 ! Name  Definition              Value          Derivative Info.                !
 --------------------------------------------------------------------------------
 ! R1    R(1,2)                  1.3203         -DE/DX =    0.0001              !
 ! R2    R(1,9)                  1.3161         -DE/DX =   -0.0001              !
 ! R3    R(1,10)                 1.0793         -DE/DX =    0.0                 !
 ! R4    R(2,3)                  1.4693         -DE/DX =   -0.0001              !
 ! R5    R(2,8)                  1.7394         -DE/DX =    0.0001              !
 ! R6    R(3,4)                  1.0843         -DE/DX =    0.0                 !
 ! R7    R(3,5)                  1.3234         -DE/DX =    0.0001              !
 ! R8    R(5,6)                  1.0808         -DE/DX =    0.0                 !
 ! R9    R(5,7)                  1.0815         -DE/DX =    0.0                 !
 ! A1    A(2,1,9)              123.6477         -DE/DX =    0.0                 !
 ! A2    A(2,1,10)             122.7872         -DE/DX =    0.0                 !
 ! A3    A(9,1,10)             113.5652         -DE/DX =    0.0                 !
 ! A4    A(1,2,3)              121.252          -DE/DX =    0.0                 !
 ! A5    A(1,2,8)              119.5812         -DE/DX =    0.0                 !
 ! A6    A(3,2,8)              119.1668         -DE/DX =    0.0                 !
 ! A7    A(2,3,4)              114.0123         -DE/DX =    0.0                 !
 ! A8    A(2,3,5)              126.5038         -DE/DX =    0.0                 !
 ! A9    A(4,3,5)              119.484          -DE/DX =    0.0                 !
 ! A10   A(3,5,6)              122.3075         -DE/DX =    0.0                 !
 ! A11   A(3,5,7)              120.2115         -DE/DX =    0.0                 !
 ! A12   A(6,5,7)              117.4811         -DE/DX =    0.0                 !
 ! D1    D(9,1,2,3)            180.0            -DE/DX =    0.0                 !
 ! D2    D(9,1,2,8)              0.0            -DE/DX =    0.0                 !
 ! D3    D(10,1,2,3)             0.0            -DE/DX =    0.0                 !
 ! D4    D(10,1,2,8)           180.0            -DE/DX =    0.0                 !
 ! D5    D(1,2,3,4)              0.0            -DE/DX =    0.0                 !
 ! D6    D(1,2,3,5)            180.0            -DE/DX =    0.0                 !
 ! D7    D(8,2,3,4)            180.0            -DE/DX =    0.0                 !
 ! D8    D(8,2,3,5)              0.0            -DE/DX =    0.0                 !
 ! D9    D(2,3,5,6)              0.0            -DE/DX =    0.0                 !
 ! D10   D(2,3,5,7)            180.0            -DE/DX =    0.0                 !
 ! D11   D(4,3,5,6)            180.0            -DE/DX =    0.0                 !
 ! D12   D(4,3,5,7)              0.0            -DE/DX =    0.0                 !
 --------------------------------------------------------------------------------
 GradGradGradGradGradGradGradGradGradGradGradGradGradGradGradGradGradGrad

                          Input orientation:                          
 ---------------------------------------------------------------------
 Center     Atomic      Atomic             Coordinates (Angstroms)
 Number     Number       Type             X           Y           Z
 ---------------------------------------------------------------------
      1          6           0       -2.075330   -1.673671    0.000000
      2          6           0       -1.434478   -0.519284    0.000000
      3          6           0        0.033765   -0.462485    0.000000
      4          1           0        0.512954   -1.435140    0.000000
      5          6           0        0.779337    0.630958    0.000000
      6          1           0        0.350022    1.622850    0.000000
      7          1           0        1.858145    0.554065    0.000000
      8         17           0       -2.340256    0.965656    0.000000
      9          9           0       -3.387131   -1.779472    0.000000
     10          1           0       -1.565723   -2.625031    0.000000
 ---------------------------------------------------------------------
                    Distance matrix (angstroms):
                    1          2          3          4          5
     1  C    0.000000
     2  C    1.320341   0.000000
     3  C    2.432130   1.469342   0.000000
     4  H    2.599252   2.152042   1.084288   0.000000
     5  C    3.668848   2.494802   1.323441   2.083200   0.000000
     6  H    4.092601   2.788042   2.109180   3.062328   1.080815
     7  H    4.520513   3.463155   2.088477   2.401349   1.081544
     8  Cl   2.652590   1.739391   2.770481   3.728892   3.137497
     9  F    1.316061   2.323989   3.665650   3.915256   4.813484
    10  H    1.079252   2.109833   2.689790   2.395149   4.012577
                    6          7          8          9         10
     6  H    0.000000
     7  H    1.848441   0.000000
     8  Cl   2.769386   4.218528   0.000000
     9  F    5.053920   5.740933   2.937971   0.000000
    10  H    4.659890   4.672208   3.673273   2.008108   0.000000
 Stoichiometry    C4H4ClF
 Framework group  CS[SG(C4H4ClF)]
 Deg. of freedom    17
 Full point group                 CS      NOp   2
 Largest Abelian subgroup         CS      NOp   2
 Largest concise Abelian subgroup C1      NOp   1
                         Standard orientation:                         
 ---------------------------------------------------------------------
 Center     Atomic      Atomic             Coordinates (Angstroms)
 Number     Number       Type             X           Y           Z
 ---------------------------------------------------------------------
      1          6           0       -1.114261    1.012074    0.000000
      2          6           0        0.000000    0.303750    0.000000
      3          6           0        1.317196    0.954872    0.000000
      4          1           0        1.273832    2.038292    0.000000
      5          6           0        2.494372    0.350096    0.000000
      6          1           0        2.590742   -0.726414    0.000000
      7          1           0        3.405556    0.932746    0.000000
      8         17           0       -0.086864   -1.433471    0.000000
      9          9           0       -2.317395    0.478702    0.000000
     10          1           0       -1.120730    2.091307    0.000000
 ---------------------------------------------------------------------
 Rotational constants (GHZ):      4.5258907      2.1648391      1.4643881

 **********************************************************************

            Population analysis using the SCF density.

 **********************************************************************

 Orbital symmetries:
       Occupied  (A') (A') (A') (A') (A') (A') (A') (A') (A') (A")
                 (A') (A') (A') (A') (A') (A') (A') (A') (A") (A')
                 (A') (A') (A") (A') (A') (A") (A")
       Virtual   (A") (A') (A') (A') (A") (A') (A') (A') (A') (A')
                 (A') (A') (A") (A') (A') (A") (A') (A') (A') (A")
                 (A') (A") (A') (A") (A') (A') (A') (A") (A') (A")
                 (A') (A') (A') (A') (A") (A') (A") (A') (A") (A')
                 (A') (A") (A') (A") (A') (A') (A") (A') (A') (A')
                 (A") (A') (A') (A') (A") (A') (A") (A') (A") (A')
[...]
 Red. masses --     1.0873                 1.0951                 1.1171
 Frc consts  --     7.1247                 7.4930                 7.7059
 IR Inten    --     5.1869                 5.3209                 5.5435
  Atom  AN      X      Y      Z        X      Y      Z        X      Y      Z
     1   6     0.00   0.00   0.00    -0.01   0.09   0.00     0.00   0.00   0.00
     2   6     0.00   0.00   0.00     0.01   0.00   0.00     0.00   0.00   0.00
     3   6     0.01  -0.06   0.00     0.00   0.01   0.00     0.00  -0.01   0.00
     4   1    -0.03   0.70   0.00     0.00  -0.06   0.00     0.00   0.09   0.00
     5   6    -0.05   0.03   0.00     0.00   0.00   0.00    -0.04  -0.09   0.00
     6   1     0.04  -0.51   0.00     0.00   0.03   0.00    -0.07   0.74   0.00
     7   1     0.41   0.26   0.00     0.02   0.01   0.00     0.55   0.35   0.00
     8  17     0.00   0.00   0.00     0.00   0.00   0.00     0.00   0.00   0.00
     9   9     0.00   0.00   0.00     0.00   0.00   0.00     0.00   0.00   0.00
    10   1     0.00  -0.04   0.00     0.01  -0.99   0.00     0.00   0.03   0.00

 -------------------
 - Thermochemistry -
 -------------------
 Temperature   298.150 Kelvin.  Pressure   1.00000 Atm.
 Atom     1 has atomic number  6 and mass  12.00000
 Atom     2 has atomic number  6 and mass  12.00000
 Atom     3 has atomic number  6 and mass  12.00000
 Atom     4 has atomic number  1 and mass   1.00783
 Atom     5 has atomic number  6 and mass  12.00000
 Atom     6 has atomic number  1 and mass   1.00783
 Atom     7 has atomic number  1 and mass   1.00783
 Atom     8 has atomic number 17 and mass  34.96885
 Atom     9 has atomic number  9 and mass  18.99840
 Atom    10 has atomic number  1 and mass   1.00783
 Molecular mass:   105.99856 amu.
 Principal axes and moments of inertia in atomic units:
                           1         2         3
     Eigenvalues --   398.75934 833.660661232.42000
           X            0.99958   0.02908   0.00000
           Y           -0.02908   0.99958   0.00000
           Z            0.00000   0.00000   1.00000
 This molecule is an asymmetric top.
 Rotational symmetry number  1.
 Rotational temperatures (Kelvin)      0.21721     0.10390     0.07028
 Rotational constants (GHZ):           4.52589     2.16484     1.46439
 Zero-point vibrational energy     193939.7 (Joules/Mol)
                                   46.35271 (Kcal/Mol)
 Warning -- explicit consideration of   6 degrees of freedom as
           vibrations may cause significant error
 Vibrational temperatures:    177.39   314.09   361.47   450.95   717.81
          (Kelvin)            721.35   893.60  1024.06  1101.35  1401.05
                             1531.81  1563.65  1583.71  1799.86  1862.80
                             2035.73  2086.26  2232.11  2642.65  2752.02
                             4773.00  4798.23  4903.11  4923.06
 
 Zero-point correction=                           0.073868 (Hartree/Particle)
 Thermal correction to Energy=                    0.079771
 Thermal correction to Enthalpy=                  0.080715
 Thermal correction to Gibbs Free Energy=         0.043580
 Sum of electronic and zero-point Energies=           -712.630159
 Sum of electronic and thermal Energies=              -712.624256
 Sum of electronic and thermal Enthalpies=            -712.623312
 Sum of electronic and thermal Free Energies=         -712.660447
 
                     E (Thermal)             CV                S
                      KCal/Mol        Cal/Mol-Kelvin    Cal/Mol-Kelvin
 Total                   50.057             20.021             78.157
 Electronic               0.000              0.000              0.000
 Translational            0.889              2.981             39.892
 Rotational               0.889              2.981             27.507
 Vibrational             48.279             14.059             10.758
 Vibration     1          0.610              1.930              3.048
 Vibration     2          0.646              1.813              1.973
 Vibration     3          0.663              1.761              1.722
 Vibration     4          0.701              1.648              1.344
 Vibration     5          0.854              1.252              0.661
 Vibration     6          0.857              1.247              0.655
                       Q            Log10(Q)             Ln(Q)
 Total Bot       0.900918D-20        -20.045315        -46.156043
 Total V=0       0.853919D+14         13.931417         32.078272
 Vib (Bot)       0.916651D-33        -33.037796        -76.072336
 Vib (Bot)    1  0.165626D+01          0.219128          0.504562
 Vib (Bot)    2  0.906728D+00         -0.042523         -0.097913
 Vib (Bot)    3  0.776387D+00         -0.109922         -0.253104
 Vib (Bot)    4  0.602104D+00         -0.220329         -0.507326
 Vib (Bot)    5  0.329751D+00         -0.481814         -1.109419
 Vib (Bot)    6  0.327417D+00         -0.484899         -1.116520
 Vib (V=0)       0.868832D+01          0.938936          2.161979
 Vib (V=0)    1  0.223009D+01          0.348322          0.802040
 Vib (V=0)    2  0.153545D+01          0.186235          0.428823
 Vib (V=0)    3  0.142346D+01          0.153345          0.353090
 Vib (V=0)    4  0.128264D+01          0.108106          0.248922
 Vib (V=0)    5  0.109895D+01          0.040976          0.094351
 Vib (V=0)    6  0.109766D+01          0.040469          0.093184
 Electronic      0.100000D+01          0.000000          0.000000
 Translational   0.428948D+08          7.632405         17.574262
 Rotational      0.229127D+06          5.360076         12.342031
 ***** Axes restored to original set *****
 -------------------------------------------------------------------
 Center     Atomic                   Forces (Hartrees/Bohr)
 Number     Number              X              Y              Z
 -------------------------------------------------------------------
      1        6          -0.000160006   -0.000003979    0.000000000
      2        6           0.000197063   -0.000048667    0.000000000
      3        6          -0.000074194   -0.000041184    0.000000000
      4        1          -0.000010336    0.000006002    0.000000000
      5        6          -0.000016847    0.000056398    0.000000000
      6        1           0.000019276   -0.000002619    0.000000000
      7        1           0.000008198    0.000001472    0.000000000
      8       17          -0.000040517    0.000079799    0.000000000
      9        9           0.000073546   -0.000025842    0.000000000
     10        1           0.000003817   -0.000021379    0.000000000
 -------------------------------------------------------------------
 Cartesian Forces:  Max     0.000197063 RMS     0.000055568

 GradGradGradGradGradGradGradGradGradGradGradGradGradGradGradGradGradGrad
 Berny optimization.
 Internal  Forces:  Max     0.000089224 RMS     0.000033283
 Search for a local minimum.
 Step number   1 out of a maximum of    2
 All quantities printed in internal units (Hartrees-Bohrs-Radians)
 Second derivative matrix not updated -- analytic derivatives used.
     Eigenvalues ---    0.00656   0.02714   0.02910   0.03651   0.03716
     Eigenvalues ---    0.05032   0.06397   0.11844   0.12804   0.14038
     Eigenvalues ---    0.15313   0.17855   0.20222   0.23771   0.26419
     Eigenvalues ---    0.31947   0.39191   0.39537   0.40062   0.40856
     Eigenvalues ---    0.41776   0.51289   0.73052   0.748481000.00000
     Eigenvalues --- 1000.000001000.000001000.000001000.000001000.00000
     Eigenvalues --- 1000.000001000.000001000.00000
 Angle between quadratic step and forces=  29.01 degrees.
 Linear search not attempted -- first point.
 Iteration  1 RMS(Cart)=  0.00013495 RMS(Int)=  0.00000001
 Iteration  2 RMS(Cart)=  0.00000002 RMS(Int)=  0.00000000
 ClnCor:  largest displacement from symmetrization is 4.54D-15 for atom    10.
 Variable       Old X    -DE/DX   Delta X   Delta X   Delta X     New X
                                 (Linear)    (Quad)   (Total)
    R1        2.49508   0.00008   0.00000   0.00010   0.00010   2.49519
    R2        2.48699  -0.00007   0.00000  -0.00019  -0.00019   2.48680
    R3        2.03949   0.00002   0.00000   0.00007   0.00007   2.03956
    R4        2.77665  -0.00007   0.00000  -0.00024  -0.00024   2.77642
    R5        3.28697   0.00009   0.00000   0.00042   0.00042   3.28740
    R6        2.04901  -0.00001   0.00000  -0.00002  -0.00002   2.04898
    R7        2.50094   0.00005   0.00000   0.00008   0.00008   2.50102
    R8        2.04244  -0.00001   0.00000  -0.00004  -0.00004   2.04241
    R9        2.04382   0.00001   0.00000   0.00003   0.00003   2.04385
    A1        2.15806   0.00005   0.00000   0.00023   0.00023   2.15829
    A2        2.14304  -0.00002   0.00000  -0.00015  -0.00015   2.14289
    A3        1.98209  -0.00003   0.00000  -0.00008  -0.00008   1.98201
    A4        2.11625   0.00004   0.00000   0.00030   0.00030   2.11654
    A5        2.08709  -0.00001   0.00000  -0.00017  -0.00017   2.08692
    A6        2.07985  -0.00003   0.00000  -0.00013  -0.00013   2.07972
    A7        1.98989   0.00000   0.00000   0.00000   0.00000   1.98989
    A8        2.20791  -0.00001   0.00000  -0.00002  -0.00002   2.20789
    A9        2.08539   0.00001   0.00000   0.00002   0.00002   2.08541
   A10        2.13467   0.00002   0.00000   0.00016   0.00016   2.13483
   A11        2.09809  -0.00001   0.00000  -0.00007  -0.00007   2.09801
   A12        2.05043  -0.00001   0.00000  -0.00009  -0.00009   2.05034
    D1        3.14159   0.00000   0.00000   0.00000   0.00000   3.14159
    D2        0.00000   0.00000   0.00000   0.00000   0.00000   0.00000
    D3        0.00000   0.00000   0.00000   0.00000   0.00000   0.00000
    D4        3.14159   0.00000   0.00000   0.00000   0.00000   3.14159
    D5        0.00000   0.00000   0.00000   0.00000   0.00000   0.00000
    D6        3.14159   0.00000   0.00000   0.00000   0.00000   3.14159
    D7        3.14159   0.00000   0.00000   0.00000   0.00000   3.14159
    D8        0.00000   0.00000   0.00000   0.00000   0.00000   0.00000
    D9        0.00000   0.00000   0.00000   0.00000   0.00000   0.00000
   D10        3.14159   0.00000   0.00000   0.00000   0.00000   3.14159
   D11        3.14159   0.00000   0.00000   0.00000   0.00000   3.14159
   D12        0.00000   0.00000   0.00000   0.00000   0.00000   0.00000
         Item               Value     Threshold  Converged?
 Maximum Force            0.000089     0.000450     YES
 RMS     Force            0.000033     0.000300     YES
 Maximum Displacement     0.000336     0.001800     YES
 RMS     Displacement     0.000135     0.001200     YES
 Predicted change in Energy=-6.199354D-08
 Optimization completed.
    -- Stationary point found.
                           ----------------------------
                           !   Optimized Parameters   !
                           ! (Angstroms and Degrees)  !
 --------------------------                            --------------------------
 ! Name  Definition              Value          Derivative Info.                !
 --------------------------------------------------------------------------------
 ! R1    R(1,2)                  1.3203         -DE/DX =    0.0001              !
 ! R2    R(1,9)                  1.3161         -DE/DX =   -0.0001              !
 ! R3    R(1,10)                 1.0793         -DE/DX =    0.0                 !
 ! R4    R(2,3)                  1.4693         -DE/DX =   -0.0001              !
 ! R5    R(2,8)                  1.7394         -DE/DX =    0.0001              !
 ! R6    R(3,4)                  1.0843         -DE/DX =    0.0                 !
 ! R7    R(3,5)                  1.3234         -DE/DX =    0.0001              !
 ! R8    R(5,6)                  1.0808         -DE/DX =    0.0                 !
 ! R9    R(5,7)                  1.0815         -DE/DX =    0.0                 !
 ! A1    A(2,1,9)              123.6477         -DE/DX =    0.0                 !
 ! A2    A(2,1,10)             122.7872         -DE/DX =    0.0                 !
 ! A3    A(9,1,10)             113.5652         -DE/DX =    0.0                 !
 ! A4    A(1,2,3)              121.252          -DE/DX =    0.0                 !
 ! A5    A(1,2,8)              119.5812         -DE/DX =    0.0                 !
 ! A6    A(3,2,8)              119.1668         -DE/DX =    0.0                 !
 ! A7    A(2,3,4)              114.0123         -DE/DX =    0.0                 !
 ! A8    A(2,3,5)              126.5038         -DE/DX =    0.0                 !
 ! A9    A(4,3,5)              119.484          -DE/DX =    0.0                 !
 ! A10   A(3,5,6)              122.3075         -DE/DX =    0.0                 !
 ! A11   A(3,5,7)              120.2115         -DE/DX =    0.0                 !
 ! A12   A(6,5,7)              117.4811         -DE/DX =    0.0                 !
 ! D1    D(9,1,2,3)            180.0            -DE/DX =    0.0                 !
 ! D2    D(9,1,2,8)              0.0            -DE/DX =    0.0                 !
 ! D3    D(10,1,2,3)             0.0            -DE/DX =    0.0                 !
 ! D4    D(10,1,2,8)           180.0            -DE/DX =    0.0                 !
 ! D5    D(1,2,3,4)              0.0            -DE/DX =    0.0                 !
 ! D6    D(1,2,3,5)            180.0            -DE/DX =    0.0                 !
 ! D7    D(8,2,3,4)            180.0            -DE/DX =    0.0                 !
 ! D8    D(8,2,3,5)              0.0            -DE/DX =    0.0                 !
 ! D9    D(2,3,5,6)              0.0            -DE/DX =    0.0                 !
 ! D10   D(2,3,5,7)            180.0            -DE/DX =    0.0                 !
 ! D11   D(4,3,5,6)            180.0            -DE/DX =    0.0                 !
 ! D12   D(4,3,5,7)              0.0            -DE/DX =    0.0                 !
 --------------------------------------------------------------------------------
 GradGradGradGradGradGradGradGradGradGradGradGradGradGradGradGradGradGrad

 1\1\GINC-MALLOS73\Freq\RHF\CC-pVDZ\C4H4Cl1F1\MARLIN\26-Oct-2024\0\\#N 
 Geom=AllCheck Guess=TCheck SCRF=Check GenChk RHF/CC-pVDZ Freq\\Title C
 ard Required\\0,1\C,-2.0753300761,-1.6736714607,0.\C,-1.4344783306,-0.
 5192842572,0.\C,0.0337654171,-0.4624854395,0.\H,0.5129541976,-1.435140
 3524,0.\C,0.7793373485,0.6309580828,0.\H,0.3500220598,1.6228498918,0.\
 H,1.8581445866,0.5540654304,0.\Cl,-2.3402562459,0.9656557884,0.\F,-3.3
 871313704,-1.7794716145,0.\H,-1.5657233166,-2.6250311491,0.\\Version=E
 M64L-G09RevA.01\State=1-A'\HF=-712.7040265\RMSD=1.028e-09\RMSF=5.557e-
 05\ZeroPoint=0.0738677\Thermal=0.0797707\Dipole=0.9073319,-0.5054491,0
 .\DipoleDeriv=1.3288951,0.8566364,0.,0.2355105,0.4033322,0.,0.,0.,0.08
 8571,0.1860613,-0.3989612,0.,-0.5219439,0.4342955,0.,0.,0.,-0.0771459,
 0.3047468,0.1507277,0.,0.0854591,-0.0391151,0.,0.,0.,-0.1424636,-0.030
 1033,0.0404832,0.,0.0533714,-0.0594579,0.,0.,0.,0.1434759,-0.0645461,-
 0.1436834,0.,-0.0913909,-0.0052564,0.,0.,0.,-0.2604157,0.0475981,0.066
 8529,0.,0.0372698,0.0079718,0.,0.,0.,0.1489531,-0.0832136,-0.0078344,0
 .,0.0357338,0.0663367,0.,0.,0.,0.1393833,-0.273958,0.2648872,0.,0.2020
 426,-0.4734961,0.,0.,0.,-0.0416239,-1.4389093,-0.8248032,0.,-0.1052963
 ,-0.3359835,0.,0.,0.,-0.1542185,0.023429,-0.0043051,0.,0.0692439,0.001
 3728,0.,0.,0.,0.1554843\Polar=64.2083437,14.2188598,71.3212834,0.,0.,2
 2.8105196\HyperPolar=140.5474191,25.4792482,31.0026568,-74.7480333,0.,
 0.,0.,1.2665276,-4.8514869,0.\PG=CS [SG(C4H4Cl1F1)]\NImag=0\\0.7972957
 1,0.11877449,0.99288585,0.,0.,0.15134818,-0.22204358,-0.20763938,0.,0.
 67813607,-0.24025006,-0.53437712,0.,0.19266970,0.81415000,0.,0.,-0.066
 65494,0.,0.,0.12902094,-0.02883053,-0.02090306,0.,-0.28643868,0.001923
 92,0.,0.73794166,-0.03515760,0.00446458,0.,0.00016605,-0.10573828,0.,0
 .14164778,0.93790901,0.,0.,-0.00069297,0.,0.,-0.06692291,0.,0.,0.15096
 018,0.00035388,0.00122987,0.,-0.01147692,0.02929716,0.,-0.12704782,0.1
 2203121,0.,0.13201397,-0.00158342,-0.00106214,0.,-0.00200948,0.0019138
 6,0.,0.11985299,-0.30642295,0.,-0.12721100,0.32759581,0.,0.,-0.0004271
 3,0.,0.,0.00292448,0.,0.,-0.04596768,0.,0.,0.02978711,-0.00065597,0.00
 901396,0.,-0.02998688,-0.04083824,0.,-0.29015869,-0.24200989,0.,0.0129
 0964,0.01642532,0.,0.81062691,0.00509057,0.00363987,0.,-0.01330483,0.0
 0447129,0.,-0.23438678,-0.49534557,0.,-0.02132890,-0.02292760,0.,0.119
 12934,0.90743106,0.,0.,0.00108678,0.,0.,0.00650982,0.,0.,-0.06219803,0
 .,0.,0.00780110,0.,0.,0.13374895,-0.00009428,0.00004131,0.,0.00084318,
 -0.00018099,0.,0.01491240,-0.01899907,0.,-0.00191804,-0.00373717,0.,-0
 .11895418,0.12042959,0.,0.11542731,-0.00005122,-0.00033310,0.,0.002183
 43,-0.00051025,0.,0.01523651,-0.02031701,0.,-0.00366623,-0.00285491,0.
 ,0.11264324,-0.32970843,0.,-0.12521385,0.34831256,0.,0.,0.00000762,0.,
 0.,-0.00805865,0.,0.,0.00760388,0.,0.,0.01282096,0.,0.,-0.04513926,0.,
 0.,0.02828951,-0.00043780,0.00048621,0.,0.00086674,-0.00270377,0.,-0.0
 1414231,0.00642446,0.,0.00124511,-0.00031516,0.,-0.37793499,0.02359143
 ,0.,-0.00672069,-0.00226966,0.,0.39752958,-0.00095411,0.00096852,0.,-0
 .00159413,-0.00589835,0.,-0.03272648,0.00584186,0.,-0.00012742,0.00131
 716,0.,0.03173014,-0.06855768,0.,0.02805300,0.00318146,0.,-0.02453836,
 0.06280261,0.,0.,0.00094497,0.,0.,0.01347883,0.,0.,0.00597771,0.,0.,-0
 .00903215,0.,0.,-0.04199236,0.,0.,0.00414518,0.,0.,0.02790805,-0.00438
 315,0.00104961,0.,-0.08620699,0.06839152,0.,-0.01344825,0.03496653,0.,
 -0.00548630,-0.00117731,0.,-0.00122102,-0.00020052,0.,-0.00349656,0.00
 113255,0.,0.00006825,0.00071824,0.,0.10709848,0.04069923,-0.04407439,0
 .,0.06364335,-0.16491488,0.,0.00535127,-0.01360141,0.,0.00140823,0.001
 26659,0.,-0.00260237,-0.00004352,0.,-0.00068926,0.00184726,0.,-0.00027
 970,0.00084340,0.,-0.09934814,0.21945423,0.,0.,0.00926813,0.,0.,-0.029
 39197,0.,0.,0.00269229,0.,0.,0.00205303,0.,0.,0.00000482,0.,0.,-0.0003
 8630,0.,0.,0.00008686,0.,0.,0.01433865,-0.41798138,-0.02697981,0.,-0.0
 5557170,0.00294511,0.,0.00745494,-0.00784626,0.,-0.00011995,0.00057498
 ,0.,-0.00481959,0.00094005,0.,-0.00003519,-0.00001417,0.,-0.00047088,-
 0.00059660,0.,0.00710103,-0.00384035,0.,0.50102503,-0.01672325,-0.0933
 1441,0.,-0.04961511,0.00509251,0.,0.00233703,-0.00661823,0.,-0.0006281
 0,0.00053851,0.,-0.00294519,0.00071657,0.,0.00011536,0.00021338,0.,-0.
 00035388,-0.00046043,0.,-0.00420114,0.00236289,0.,0.03996368,0.0796499
 7,0.,0.,-0.04904829,0.,0.,0.01031314,0.,0.,0.01346665,0.,0.,-0.0003679
 9,0.,0.,0.00022871,0.,0.,0.00032642,0.,0.,-0.00163015,0.,0.,-0.0063496
 8,0.,0.,0.02616709,-0.12322290,0.12492680,0.,0.01187876,-0.01125435,0.
 ,-0.00024271,-0.00122320,0.,-0.00047356,-0.00081974,0.,0.00019476,0.00
 004006,0.,0.00003605,0.00001938,0.,-0.00000301,0.00003575,0.,-0.000025
 50,-0.00434224,0.,-0.03658231,0.03205061,0.,0.14844041,0.13015538,-0.3
 2879765,0.,0.01550041,-0.01418879,0.,0.00166684,-0.00017200,0.,-0.0010
 0482,0.00063566,0.,-0.00054630,0.00032401,0.,0.00018109,0.00016904,0.,
 -0.00004157,-0.00003856,0.,-0.00133133,-0.00314016,0.,-0.00514663,0.01
 181924,0.,-0.13943307,0.33338922,0.,0.,-0.04583236,0.,0.,0.00878127,0.
 ,0.,-0.00491912,0.,0.,0.00040826,0.,0.,-0.00005052,0.,0.,0.00039065,0.
 ,0.,0.00011307,0.,0.,0.00768418,0.,0.,0.00689410,0.,0.,0.02653046\\0.0
 0016001,0.00000398,0.,-0.00019706,0.00004867,0.,0.00007419,0.00004118,
 0.,0.00001034,-0.00000600,0.,0.00001685,-0.00005640,0.,-0.00001928,0.0
 0000262,0.,-0.00000820,-0.00000147,0.,0.00004052,-0.00007980,0.,-0.000
 07355,0.00002584,0.,-0.00000382,0.00002138,0.\\\@


 A successful marriage requires falling in love
 many times, always with the same person.
                           -- Mignon McLaughlin
 Job cpu time:  0 days  0 hours  1 minutes 39.7 seconds.
 File lengths (MBytes):  RWF=     19 Int=      0 D2E=      0 Chk=      2 Scr=      1
 Normal termination of Gaussian 09 at Sat Oct 26 18:17:30 2024.
