 Entering Gaussian System, Link 0=g09
 Initial command:
 /u/local/G09/g09/l1.exe /tmp/marlin/22639.mallos00.local/Gau-51737.inp -scrdir=/tmp/marlin/22639.mallos00.local/
 Entering Link 1 = /u/local/G09/g09/l1.exe PID=     51739.
  
 Copyright (c) 1988,1990,1992,1993,1995,1998,2003,2009, Gaussian, Inc.
                  All Rights Reserved.
  
 This is part of the Gaussian(R) 09 program.  It is based on
 the Gaussian(R) 03 system (copyright 2003, Gaussian, Inc.),
 the Gaussian(R) 98 system (copyright 1998, Gaussian, Inc.),
 the Gaussian(R) 94 system (copyright 1995, Gaussian, Inc.),
 the Gaussian 92(TM) system (copyright 1992, Gaussian, Inc.),
 the Gaussian 90(TM) system (copyright 1990, Gaussian, Inc.),
 the Gaussian 88(TM) system (copyright 1988, Gaussian, Inc.),
 the Gaussian 86(TM) system (copyright 1986, Carnegie Mellon
 University), and the Gaussian 82(TM) system (copyright 1983,
 Carnegie Mellon University). Gaussian is a federally registered
 trademark of Gaussian, Inc.
  
 This software contains proprietary and confidential information,
 including trade secrets, belonging to Gaussian, Inc.
  
 This software is provided under written license and may be
 used, copied, transmitted, or stored only in accord with that
 written license.
  
 The following legend is applicable only to US Government
 contracts under FAR:
  
                    RESTRICTED RIGHTS LEGEND
  
 Use, reproduction and disclosure by the US Government is
 subject to restrictions as set forth in subparagraphs (a)
 and (c) of the Commercial Computer Software - Restricted
 Rights clause in FAR 52.227-19.
  
 Gaussian, Inc.
 340 Quinnipiac St., Bldg. 40, Wallingford CT 06492
  
  
 ---------------------------------------------------------------
 Warning -- This program may not be used in any manner that
 competes with the business of Gaussian, Inc. or will provide
 assistance to any competitor of Gaussian, Inc.  The licensee
 of this program is prohibited from giving any competitor of
 Gaussian, Inc. access to this program.  By using this program,
 the user acknowledges that Gaussian, Inc. is engaged in the
 business of creating and licensing software in the field of
 computational chemistry and represents and warrants to the
 licensee that it is not a competitor of Gaussian, Inc. and that
 it will not use this program in any manner prohibited above.
 ---------------------------------------------------------------
  

 Cite this work as:
 Gaussian 09, Revision A.01,
 M. J. Frisch, G. W. Trucks, H. B. Schlegel, G. E. Scuseria, 
 M. A. Robb, J. R. Cheeseman, G. Scalmani, V. Barone, B. Mennucci, 
 G. A. Petersson, H. Nakatsuji, M. Caricato, X. Li, H. P. Hratchian, 
 A. F. Izmaylov, J. Bloino, G. Zheng, J. L. Sonnenberg, M. Hada, 
 M. Ehara, K. Toyota, R. Fukuda, J. Hasegawa, M. Ishida, T. Nakajima, 
 Y. Honda, O. Kitao, H. Nakai, T. Vreven, J. A. Montgomery, Jr., 
 J. E. Peralta, F. Ogliaro, M. Bearpark, J. J. Heyd, E. Brothers, 
 K. N. Kudin, V. N. Staroverov, R. Kobayashi, J. Normand, 
 K. Raghavachari, A. Rendell, J. C. Burant, S. S. Iyengar, J. Tomasi, 
 M. Cossi, N. Rega, J. M. Millam, M. Klene, J. E. Knox, J. B. Cross, 
 V. Bakken, C. Adamo, J. Jaramillo, R. Gomperts, R. E. Stratmann, 
 O. Yazyev, A. J. Austin, R. Cammi, C. Pomelli, J. W. Ochterski, 
 R. L. Martin, K. Morokuma, V. G. Zakrzewski, G. A. Voth, 
 P. Salvador, J. J. Dannenberg, S. Dapprich, A. D. Daniels, 
 O. Farkas, J. B. Foresman, J. V. Ortiz, J. Cioslowski, 
 and D. J. Fox, Gaussian, Inc., Wallingford CT, 2009.
 
 ******************************************
 Gaussian 09:  EM64L-G09RevA.01  8-May-2009
                24-Oct-2024 
 ******************************************
 %mem=103GB
 %nproc=20
 Will use up to   20 processors via shared memory.
 %chk=1-lanl2dz.chk
 -----------------------------------------------
 # opt freq=noraman hf/lanl2dz geom=connectivity
 -----------------------------------------------
 1/18=20,19=15,38=1,57=2/1,3;
 2/9=110,12=2,17=6,18=5,40=1/2;
 3/5=6,6=3,11=9,16=1,25=1,30=1,71=1/1,2,3;
 4//1;
 5/5=2,38=5/2;
 6/7=2,8=2,9=2,10=2,28=1/1;
 7//1,2,3,16;
 1/18=20,19=15/3(2);
 2/9=110/2;
 99//99;
 2/9=110/2;
 3/5=6,6=3,11=9,16=1,25=1,30=1,71=1/1,2,3;
 4/5=5,16=3/1;
 5/5=2,38=5/2;
 7//1,2,3,16;
 1/18=20,19=15/3(-5);
 2/9=110/2;
 6/7=2,8=2,9=2,10=2,19=2,28=1/1;
 99/9=1/99;
 -------------------
 Title Card Required
 -------------------
 Symbolic Z-matrix:
 Charge =  0 Multiplicity = 1
 C                     1.08621  -2.33173  -0.012 
 C                     0.04967  -1.51492  -0.03 
 H                    -0.91076  -2.00548  -0.018 
 H                     1.49344   1.36218  -0.384 
 H                    -2.34417   3.46978   0.252 
 H                    -3.71958   0.93621   0.384 
 Sn                    0.        0.58554   0.012 
 Sn                   -2.26407   1.78675  -0.012 
 F                     0.92795  -3.69906   0.006 
 Br                    2.95765  -1.88588   0. 
 

 GradGradGradGradGradGradGradGradGradGradGradGradGradGradGradGradGradGrad
 Berny optimization.
 Initialization pass.
                           ----------------------------
                           !    Initial Parameters    !
                           ! (Angstroms and Degrees)  !
 --------------------------                            --------------------------
 ! Name  Definition              Value          Derivative Info.                !
 --------------------------------------------------------------------------------
 ! R1    R(1,2)                  1.3198         estimate D2E/DX2                !
 ! R2    R(1,9)                  1.3766         estimate D2E/DX2                !
 ! R3    R(1,10)                 1.9239         estimate D2E/DX2                !
 ! R4    R(2,3)                  1.0785         estimate D2E/DX2                !
 ! R5    R(2,7)                  2.1015         estimate D2E/DX2                !
 ! R6    R(4,7)                  1.7293         estimate D2E/DX2                !
 ! R7    R(5,8)                  1.7055         estimate D2E/DX2                !
 ! R8    R(6,8)                  1.7317         estimate D2E/DX2                !
 ! R9    R(7,8)                  2.5631         estimate D2E/DX2                !
 ! A1    A(2,1,9)              121.6422         estimate D2E/DX2                !
 ! A2    A(2,1,10)             128.362          estimate D2E/DX2                !
 ! A3    A(9,1,10)             109.9954         estimate D2E/DX2                !
 ! A4    A(1,2,3)              114.6913         estimate D2E/DX2                !
 ! A5    A(1,2,7)              129.5592         estimate D2E/DX2                !
 ! A6    A(3,2,7)              115.6803         estimate D2E/DX2                !
 ! A7    A(2,7,4)              115.082          estimate D2E/DX2                !
 ! A8    A(2,7,8)              119.283          estimate D2E/DX2                !
 ! A9    A(4,7,8)              123.3835         estimate D2E/DX2                !
 ! A10   A(5,8,6)              114.1936         estimate D2E/DX2                !
 ! A11   A(5,8,7)              120.1669         estimate D2E/DX2                !
 ! A12   A(6,8,7)              120.6721         estimate D2E/DX2                !
 ! D1    D(9,1,2,3)              0.6625         estimate D2E/DX2                !
 ! D2    D(9,1,2,7)            177.47           estimate D2E/DX2                !
 ! D3    D(10,1,2,3)          -179.1017         estimate D2E/DX2                !
 ! D4    D(10,1,2,7)            -2.2942         estimate D2E/DX2                !
 ! D5    D(1,2,7,4)             17.1638         estimate D2E/DX2                !
 ! D6    D(1,2,7,8)           -179.2973         estimate D2E/DX2                !
 ! D7    D(3,2,7,4)           -166.0548         estimate D2E/DX2                !
 ! D8    D(3,2,7,8)             -2.516          estimate D2E/DX2                !
 ! D9    D(2,7,8,5)            170.9824         estimate D2E/DX2                !
 ! D10   D(2,7,8,6)             17.364          estimate D2E/DX2                !
 ! D11   D(4,7,8,5)            -26.9176         estimate D2E/DX2                !
 ! D12   D(4,7,8,6)            179.464          estimate D2E/DX2                !
 --------------------------------------------------------------------------------
 Trust Radius=3.00D-01 FncErr=1.00D-07 GrdErr=1.00D-07
 Number of steps in this run=  43 maximum allowed number of steps= 100.
 GradGradGradGradGradGradGradGradGradGradGradGradGradGradGradGradGradGrad

                          Input orientation:                          
 ---------------------------------------------------------------------
 Center     Atomic      Atomic             Coordinates (Angstroms)
 Number     Number       Type             X           Y           Z
 ---------------------------------------------------------------------
      1          6           0        1.086208   -2.331731   -0.012000
      2          6           0        0.049671   -1.514923   -0.030000
      3          1           0       -0.910756   -2.005475   -0.018000
      4          1           0        1.493435    1.362183   -0.384000
      5          1           0       -2.344168    3.469780    0.252000
      6          1           0       -3.719576    0.936212    0.384000
      7         50           0        0.000000    0.585536    0.012000
      8         50           0       -2.264069    1.786752   -0.012000
      9          9           0        0.927951   -3.699056    0.006000
     10         35           0        2.957648   -1.885877    0.000000
 ---------------------------------------------------------------------
                    Distance matrix (angstroms):
                    1          2          3          4          5
     1  C    0.000000
     2  C    1.319814   0.000000
     3  H    2.023449   1.078520   0.000000
     4  H    3.734865   3.238442   4.153939   0.000000
     5  H    6.744976   5.536899   5.666215   4.424213   0.000000
     6  H    5.825103   4.515161   4.087126   5.286469   2.885851
     7  Sn   3.113016   2.101466   2.746582   1.729261   3.724458
     8  Sn   5.309073   4.031721   4.026472   3.799668   1.705490
     9  F    1.376571   2.354381   2.499927   5.107643   7.884129
    10  Br   1.923855   2.931695   3.870294   3.583472   7.540280
                    6          7          8          9         10
     6  H    0.000000
     7  Sn   3.754544   0.000000
     8  Sn   1.731686   2.563104   0.000000
     9  F    6.574808   4.383932   6.346921   0.000000
    10  Br   7.259267   3.854310   6.383939   2.721640   0.000000
 Stoichiometry    C2H4BrFSn2
 Framework group  C1[X(C2H4BrFSn2)]
 Deg. of freedom    24
 Full point group                 C1      NOp   1
 Largest Abelian subgroup         C1      NOp   1
 Largest concise Abelian subgroup C1      NOp   1
                         Standard orientation:                         
 ---------------------------------------------------------------------
 Center     Atomic      Atomic             Coordinates (Angstroms)
 Number     Number       Type             X           Y           Z
 ---------------------------------------------------------------------
      1          6           0       -2.359043    1.025475   -0.016860
      2          6           0       -1.041544    1.100999   -0.036868
      3          1           0       -0.647710    2.105032   -0.032425
      4          1           0       -0.215440   -2.012562   -0.369727
      5          1           0        4.055568   -1.041833    0.254637
      6          1           0        3.405791    1.767651    0.367449
      7         50           0        0.388196   -0.438276    0.014449
      8         50           0        2.879537    0.163189   -0.016599
      9          9           0       -3.147014    2.154160   -0.005981
     10         35           0       -3.464521   -0.548863    0.007536
 ---------------------------------------------------------------------
 Rotational constants (GHZ):      2.8426340      0.2257210      0.2091868
 Standard basis: LANL2DZ (5D, 7F)
 There are    59 symmetry adapted basis functions of A   symmetry.
 Integral buffers will be    131072 words long.
 Raffenetti 1 integral format.
 Two-electron integral symmetry is turned on.
    59 basis functions,   127 primitive gaussians,    59 cartesian basis functions
    20 alpha electrons       20 beta electrons
       nuclear repulsion energy       134.4146256882 Hartrees.
 NAtoms=   10 NActive=   10 NUniq=   10 SFac= 7.50D-01 NAtFMM=   80 NAOKFM=F Big=F
 One-electron integrals computed using PRISM.
   1 Symmetry operations used in ECPInt.
 ECPInt:  NShTT=     630 NPrTT=    3262 LenC2=     621 LenP2D=    2657.
 LDataN:  DoStor=T MaxTD1= 4 Len=   56
 NBasis=    59 RedAO= T  NBF=    59
 NBsUse=    59 1.00D-06 NBFU=    59
 Harris functional with IExCor=  205 diagonalized for initial guess.
 ExpMin= 6.30D-02 ExpMax= 1.00D+04 ExpMxC= 3.50D+02 IAcc=2 IRadAn=         0 AccDes= 0.00D+00
 HarFok:  IExCor=  205 AccDes= 0.00D+00 IRadAn=         0 IDoV= 1
 ScaDFX=  1.000000  1.000000  1.000000  1.000000
 Defaulting to unpruned grid for atomic number  50.
 Defaulting to unpruned grid for atomic number  50.
 Defaulting to unpruned grid for atomic number  50.
 Defaulting to unpruned grid for atomic number  50.
 Defaulting to unpruned grid for atomic number  50.
 Defaulting to unpruned grid for atomic number  50.
 Defaulting to unpruned grid for atomic number  50.
 Defaulting to unpruned grid for atomic number  50.
 Defaulting to unpruned grid for atomic number  50.
 Defaulting to unpruned grid for atomic number  50.
 Defaulting to unpruned grid for atomic number  50.
 Defaulting to unpruned grid for atomic number  50.
 Defaulting to unpruned grid for atomic number  50.
 Defaulting to unpruned grid for atomic number  50.
 Defaulting to unpruned grid for atomic number  50.
 Defaulting to unpruned grid for atomic number  50.
 Defaulting to unpruned grid for atomic number  50.
 Defaulting to unpruned grid for atomic number  50.
 Defaulting to unpruned grid for atomic number  50.
 Defaulting to unpruned grid for atomic number  50.
 FoFCou: FMM=F IPFlag=           0 FMFlag=      100000 FMFlg1=           0
         NFxFlg=           0 DoJE=T BraDBF=F KetDBF=T FulRan=T
         Omega=  0.000000  0.000000  1.000000  0.000000  0.000000 ICntrl=     500 IOpCl=  0
         NMat0=    1 NMatS0=    1 NMatT0=    0 NMatD0=    1 NMtDS0=    0 NMtDT0=    0
         I1Cent=           4 NGrid=           0.
 Petite list used in FoFCou.
 Initial guess orbital symmetries:
       Occupied  (A) (A) (A) (A) (A) (A) (A) (A) (A) (A) (A) (A)
                 (A) (A) (A) (A) (A) (A) (A) (A)
       Virtual   (A) (A) (A) (A) (A) (A) (A) (A) (A) (A) (A) (A)
                 (A) (A) (A) (A) (A) (A) (A) (A) (A) (A) (A) (A)
                 (A) (A) (A) (A) (A) (A) (A) (A) (A) (A) (A) (A)
                 (A) (A) (A)
 The electronic state of the initial guess is 1-A.
 Requested convergence on RMS density matrix=1.00D-08 within 128 cycles.
 Requested convergence on MAX density matrix=1.00D-06.
 Requested convergence on             energy=1.00D-06.
 No special actions if energy rises.
 Keep R1 ints in memory in canonical form, NReq=2397586.
 SCF Done:  E(RHF) =  -196.765876237     A.U. after   15 cycles
             Convg  =    0.7569D-08             -V/T =  2.0710

 **********************************************************************

            Population analysis using the SCF density.

 **********************************************************************

 Orbital symmetries:
       Occupied  (A) (A) (A) (A) (A) (A) (A) (A) (A) (A) (A) (A)
                 (A) (A) (A) (A) (A) (A) (A) (A)
       Virtual   (A) (A) (A) (A) (A) (A) (A) (A) (A) (A) (A) (A)
                 (A) (A) (A) (A) (A) (A) (A) (A) (A) (A) (A) (A)
                 (A) (A) (A) (A) (A) (A) (A) (A) (A) (A) (A) (A)
                 (A) (A) (A)
 The electronic state is 1-A.
 Alpha  occ. eigenvalues --  -26.32428 -11.41121 -11.27567  -1.64173  -1.11756
 Alpha  occ. eigenvalues --   -1.01860  -0.81035  -0.72068  -0.70802  -0.70778
 Alpha  occ. eigenvalues --   -0.68020  -0.61075  -0.54201  -0.48789  -0.48051
 Alpha  occ. eigenvalues --   -0.46192  -0.44790  -0.42149  -0.39753  -0.25681
 Alpha virt. eigenvalues --   -0.00041   0.07776   0.08508   0.12515   0.13348
 Alpha virt. eigenvalues --    0.15497   0.16574   0.24601   0.26728   0.29088
 Alpha virt. eigenvalues --    0.31509   0.32168   0.33543   0.36465   0.38689
 Alpha virt. eigenvalues --    0.43771   0.46841   0.47642   0.52531   0.59213
 Alpha virt. eigenvalues --    0.61452   0.63301   0.70445   0.72573   0.79464
 Alpha virt. eigenvalues --    0.84413   0.94035   1.16187   1.19418   1.23182
 Alpha virt. eigenvalues --    1.25525   1.29214   1.35473   1.35635   1.46488
 Alpha virt. eigenvalues --    2.35378  11.95893  13.48844  20.34617
          Condensed to atoms (all electrons):
              1          2          3          4          5          6
     1  C    5.142571   0.271928  -0.020090   0.001742   0.000000   0.000007
     2  C    0.271928   5.864351   0.365216  -0.019700   0.000056   0.000580
     3  H   -0.020090   0.365216   0.429152  -0.000031   0.000000  -0.000030
     4  H    0.001742  -0.019700  -0.000031   0.773173   0.000041   0.000007
     5  H    0.000000   0.000056   0.000000   0.000041   0.797251  -0.006566
     6  H    0.000007   0.000580  -0.000030   0.000007  -0.006566   0.802873
     7  Sn  -0.080656   0.238569  -0.013272   0.381096  -0.014798  -0.017685
     8  Sn  -0.000825  -0.033953   0.002285  -0.013410   0.360031   0.360522
     9  F    0.158112  -0.025621  -0.004273  -0.000002   0.000000   0.000000
    10  Br   0.370532  -0.133535   0.002451  -0.001082   0.000000   0.000000
              7          8          9         10
     1  C   -0.080656  -0.000825   0.158112   0.370532
     2  C    0.238569  -0.033953  -0.025621  -0.133535
     3  H   -0.013272   0.002285  -0.004273   0.002451
     4  H    0.381096  -0.013410  -0.000002  -0.001082
     5  H   -0.014798   0.360031   0.000000   0.000000
     6  H   -0.017685   0.360522   0.000000   0.000000
     7  Sn   2.474530   0.503880   0.002076   0.002333
     8  Sn   0.503880   2.552414  -0.000041   0.000223
     9  F    0.002076  -0.000041   9.243071  -0.061651
    10  Br   0.002333   0.000223  -0.061651   6.771691
 Mulliken atomic charges:
              1
     1  C    0.156679
     2  C   -0.527890
     3  H    0.238593
     4  H   -0.121833
     5  H   -0.136014
     6  H   -0.139708
     7  Sn   0.523928
     8  Sn   0.268875
     9  F   -0.311670
    10  Br   0.049040
 Sum of Mulliken atomic charges =   0.00000
 Mulliken charges with hydrogens summed into heavy atoms:
              1
     1  C    0.156679
     2  C   -0.289297
     7  Sn   0.402094
     8  Sn  -0.006847
     9  F   -0.311670
    10  Br   0.049040
 Sum of Mulliken charges with hydrogens summed into heavy atoms =   0.00000
 Electronic spatial extent (au):  <R**2>=           1398.9539
 Charge=              0.0000 electrons
 Dipole moment (field-independent basis, Debye):
    X=              2.1518    Y=             -0.8045    Z=             -0.1140  Tot=              2.3001
 Quadrupole moment (field-independent basis, Debye-Ang):
   XX=            -75.4055   YY=            -70.1105   ZZ=            -70.8179
   XY=              5.4695   XZ=             -0.6714   YZ=             -0.1256
 Traceless Quadrupole moment (field-independent basis, Debye-Ang):
   XX=             -3.2942   YY=              2.0008   ZZ=              1.2934
   XY=              5.4695   XZ=             -0.6714   YZ=             -0.1256
 Octapole moment (field-independent basis, Debye-Ang**2):
  XXX=            116.2401  YYY=            -38.3544  ZZZ=              0.0613  XYY=             37.6149
  XXY=            -32.6902  XXZ=             -2.1209  XZZ=             24.0711  YZZ=            -10.1176
  YYZ=             -0.0838  XYZ=              0.2390
 Hexadecapole moment (field-independent basis, Debye-Ang**3):
 XXXX=          -2800.6191 YYYY=           -464.8441 ZZZZ=           -147.7821 XXXY=            159.4276
 XXXZ=            -20.0148 YYYX=             94.1024 YYYZ=             -3.1989 ZZZX=             -5.1417
 ZZZY=             -0.7983 XXYY=           -579.8612 XXZZ=           -489.2392 YYZZ=           -100.2711
 XXYZ=             -1.9235 YYXZ=             -5.1973 ZZXY=             18.5662
 N-N= 1.344146256882D+02 E-N=-7.250421740919D+02  KE= 1.837269556161D+02
   1 Symmetry operations used in ECPInt.
 ECPInt:  NShTT=     630 NPrTT=    3262 LenC2=     621 LenP2D=    2657.
 LDataN:  DoStor=T MaxTD1= 5 Len=  102
 Calling FoFJK, ICntrl=      2127 FMM=F ISym2X=0 I1Cent= 0 IOpClX= 0 NMat=1 NMatS=1 NMatT=0.
 ***** Axes restored to original set *****
 -------------------------------------------------------------------
 Center     Atomic                   Forces (Hartrees/Bohr)
 Number     Number              X              Y              Z
 -------------------------------------------------------------------
      1        6          -0.000354013   -0.000096178   -0.000664006
      2        6          -0.000006433   -0.001013969   -0.003406105
      3        1           0.000018233   -0.000200509   -0.000218546
      4        1          -0.010264511   -0.005789701   -0.000594121
      5        1           0.001020352   -0.004603139    0.001279510
      6        1           0.009909817    0.005055461    0.000766182
      7       50           0.016851122    0.004046135    0.009613769
      8       50          -0.017251561    0.002354159   -0.007064937
      9        9           0.000102934    0.000209351    0.000493717
     10       35          -0.000025941    0.000038390   -0.000205463
 -------------------------------------------------------------------
 Cartesian Forces:  Max     0.017251561 RMS     0.005907380

 GradGradGradGradGradGradGradGradGradGradGradGradGradGradGradGradGradGrad
 Berny optimization.
 Internal  Forces:  Max     0.011328919 RMS     0.003716538
 Search for a local minimum.
 Step number   1 out of a maximum of   43
 All quantities printed in internal units (Hartrees-Bohrs-Radians)
 Mixed Optimization -- RFO/linear search
 Second derivative matrix not updated -- first step.
     Eigenvalues ---    0.00230   0.00230   0.00436   0.00975   0.01683
     Eigenvalues ---    0.03149   0.03150   0.11482   0.11953   0.12020
     Eigenvalues ---    0.12711   0.13953   0.15537   0.15990   0.16000
     Eigenvalues ---    0.16000   0.17133   0.22004   0.22094   0.25000
     Eigenvalues ---    0.25000   0.36174   0.49735   0.619781000.00000
     Eigenvalues --- 1000.000001000.000001000.000001000.000001000.00000
     Eigenvalues --- 1000.000001000.000001000.00000
 RFO step:  Lambda=-1.04600913D-02 EMin= 2.30000000D-03
 Linear search not attempted -- first point.
 Maximum step size (   0.300) exceeded in Quadratic search.
    -- Step size scaled by   0.421
 Iteration  1 RMS(Cart)=  0.05306811 RMS(Int)=  0.00320820
 Iteration  2 RMS(Cart)=  0.00373562 RMS(Int)=  0.00175342
 Iteration  3 RMS(Cart)=  0.00000703 RMS(Int)=  0.00175341
 Iteration  4 RMS(Cart)=  0.00000001 RMS(Int)=  0.00175341
 Variable       Old X    -DE/DX   Delta X   Delta X   Delta X     New X
                                 (Linear)    (Quad)   (Total)
    R1        2.49409  -0.00032   0.00000  -0.00021  -0.00021   2.49388
    R2        2.60134  -0.00021   0.00000  -0.00018  -0.00018   2.60116
    R3        3.63556  -0.00002   0.00000  -0.00004  -0.00004   3.63552
    R4        2.03811   0.00007   0.00000   0.00008   0.00008   2.03819
    R5        3.97120   0.00114   0.00000   0.00319   0.00319   3.97438
    R6        3.26783  -0.01133   0.00000  -0.03649  -0.03649   3.23134
    R7        3.22291  -0.00439   0.00000  -0.01344  -0.01344   3.20947
    R8        3.27241  -0.01064   0.00000  -0.03444  -0.03444   3.23797
    R9        4.84357   0.00695   0.00000   0.02333   0.02333   4.86690
    A1        2.12306   0.00020   0.00000   0.00032   0.00032   2.12337
    A2        2.24034  -0.00018   0.00000  -0.00030  -0.00030   2.24004
    A3        1.91978  -0.00002   0.00000  -0.00003  -0.00003   1.91975
    A4        2.00174  -0.00003   0.00000  -0.00014  -0.00014   2.00160
    A5        2.26123  -0.00028   0.00000  -0.00050  -0.00050   2.26074
    A6        2.01900   0.00031   0.00000   0.00070   0.00070   2.01970
    A7        2.00856  -0.00084   0.00000  -0.01778  -0.02211   1.98645
    A8        2.08188  -0.00105   0.00000  -0.01170  -0.01580   2.06608
    A9        2.15345   0.00032   0.00000  -0.01478  -0.01913   2.13431
   A10        1.99305   0.00133   0.00000  -0.01569  -0.01984   1.97321
   A11        2.09731  -0.00201   0.00000  -0.02219  -0.02566   2.07165
   A12        2.10613  -0.00247   0.00000  -0.02330  -0.02676   2.07936
    D1        0.01156  -0.00060   0.00000  -0.00621  -0.00621   0.00536
    D2        3.09744  -0.00050   0.00000  -0.00481  -0.00481   3.09263
    D3       -3.12591  -0.00034   0.00000  -0.00363  -0.00363  -3.12954
    D4       -0.04004  -0.00024   0.00000  -0.00223  -0.00223  -0.04227
    D5        0.29957   0.00242   0.00000   0.06912   0.06863   0.36819
    D6       -3.12933  -0.00312   0.00000  -0.09087  -0.09038   3.06348
    D7       -2.89820   0.00251   0.00000   0.07051   0.07001  -2.82819
    D8       -0.04391  -0.00304   0.00000  -0.08949  -0.08899  -0.13290
    D9        2.98421   0.00025   0.00000   0.03828   0.03887   3.02307
   D10        0.30306   0.00780   0.00000   0.19558   0.19416   0.49722
   D11       -0.46980  -0.00600   0.00000  -0.13615  -0.13474  -0.60454
   D12        3.13224   0.00155   0.00000   0.02114   0.02056  -3.13039
         Item               Value     Threshold  Converged?
 Maximum Force            0.011329     0.000450     NO 
 RMS     Force            0.003717     0.000300     NO 
 Maximum Displacement     0.180491     0.001800     NO 
 RMS     Displacement     0.053981     0.001200     NO 
 Predicted change in Energy=-3.859966D-03
 GradGradGradGradGradGradGradGradGradGradGradGradGradGradGradGradGradGrad

                          Input orientation:                          
 ---------------------------------------------------------------------
 Center     Atomic      Atomic             Coordinates (Angstroms)
 Number     Number       Type             X           Y           Z
 ---------------------------------------------------------------------
      1          6           0        1.086252   -2.326916   -0.023533
      2          6           0        0.050693   -1.508961   -0.010089
      3          1           0       -0.910234   -1.998749   -0.015119
      4          1           0        1.465629    1.340872   -0.367678
      5          1           0       -2.344900    3.452410    0.192750
      6          1           0       -3.686432    0.954642    0.440430
      7         50           0        0.004495    0.590393    0.107512
      8         50           0       -2.274154    1.776746   -0.074902
      9          9           0        0.926913   -3.693909   -0.048667
     10         35           0        2.958083   -1.883127   -0.002702
 ---------------------------------------------------------------------
                    Distance matrix (angstroms):
                    1          2          3          4          5
     1  C    0.000000
     2  C    1.319702   0.000000
     3  H    2.023295   1.078563   0.000000
     4  H    3.703382   3.201791   4.113647   0.000000
     5  H    6.724597   5.513186   5.640622   4.392358   0.000000
     6  H    5.810543   4.498713   4.078888   5.229335   2.846032
     7  Sn   3.114172   2.103153   2.748713   1.709953   3.703791
     8  Sn   5.304245   4.025542   4.014750   3.776464   1.698379
     9  F    1.376477   2.354410   2.499960   5.073560   7.863391
    10  Br   1.923833   2.931377   3.870065   3.571386   7.525144
                    6          7          8          9         10
     6  H    0.000000
     7  Sn   3.723769   0.000000
     8  Sn   1.713462   2.575451   0.000000
     9  F    6.567435   4.385258   6.338421   0.000000
    10  Br   7.238708   3.854106   6.385624   2.721525   0.000000
 Stoichiometry    C2H4BrFSn2
 Framework group  C1[X(C2H4BrFSn2)]
 Deg. of freedom    24
 Full point group                 C1      NOp   1
 Largest Abelian subgroup         C1      NOp   1
 Largest concise Abelian subgroup C1      NOp   1
                         Standard orientation:                         
 ---------------------------------------------------------------------
 Center     Atomic      Atomic             Coordinates (Angstroms)
 Number     Number       Type             X           Y           Z
 ---------------------------------------------------------------------
      1          6           0       -2.353981    1.027548   -0.007174
      2          6           0       -1.036311    1.097568    0.014181
      3          1           0       -0.638945    2.099833    0.043590
      4          1           0       -0.212901   -1.963003   -0.440094
      5          1           0        4.039797   -1.048238    0.168652
      6          1           0        3.394478    1.703353    0.503622
      7         50           0        0.385466   -0.450479    0.087324
      8         50           0        2.880285    0.170686   -0.064260
      9          9           0       -3.137847    2.158995    0.001307
     10         35           0       -3.465361   -0.542398   -0.042365
 ---------------------------------------------------------------------
 Rotational constants (GHZ):      2.8028349      0.2256642      0.2091907
 Standard basis: LANL2DZ (5D, 7F)
 There are    59 symmetry adapted basis functions of A   symmetry.
 Integral buffers will be    131072 words long.
 Raffenetti 1 integral format.
 Two-electron integral symmetry is turned on.
    59 basis functions,   127 primitive gaussians,    59 cartesian basis functions
    20 alpha electrons       20 beta electrons
       nuclear repulsion energy       134.4972868070 Hartrees.
 NAtoms=   10 NActive=   10 NUniq=   10 SFac= 7.50D-01 NAtFMM=   80 NAOKFM=F Big=F
 One-electron integrals computed using PRISM.
   1 Symmetry operations used in ECPInt.
 ECPInt:  NShTT=     630 NPrTT=    3262 LenC2=     621 LenP2D=    2658.
 LDataN:  DoStor=T MaxTD1= 4 Len=   56
 NBasis=    59 RedAO= T  NBF=    59
 NBsUse=    59 1.00D-06 NBFU=    59
 Initial guess read from the read-write file.
 B after Tr=     0.000000    0.000000    0.000000
         Rot=    1.000000    0.000000    0.000000    0.000000 Ang=   0.00 deg.
 Initial guess orbital symmetries:
       Occupied  (A) (A) (A) (A) (A) (A) (A) (A) (A) (A) (A) (A)
                 (A) (A) (A) (A) (A) (A) (A) (A)
       Virtual   (A) (A) (A) (A) (A) (A) (A) (A) (A) (A) (A) (A)
                 (A) (A) (A) (A) (A) (A) (A) (A) (A) (A) (A) (A)
                 (A) (A) (A) (A) (A) (A) (A) (A) (A) (A) (A) (A)
                 (A) (A) (A)
 Harris functional with IExCor=  205 diagonalized for initial guess.
 ExpMin= 6.30D-02 ExpMax= 1.00D+04 ExpMxC= 3.50D+02 IAcc=2 IRadAn=         0 AccDes= 0.00D+00
 HarFok:  IExCor=  205 AccDes= 0.00D+00 IRadAn=         0 IDoV= 1
 ScaDFX=  1.000000  1.000000  1.000000  1.000000
 Defaulting to unpruned grid for atomic number  50.
 Defaulting to unpruned grid for atomic number  50.
 Defaulting to unpruned grid for atomic number  50.
 Defaulting to unpruned grid for atomic number  50.
 Defaulting to unpruned grid for atomic number  50.
 Defaulting to unpruned grid for atomic number  50.
 Defaulting to unpruned grid for atomic number  50.
 Defaulting to unpruned grid for atomic number  50.
 Defaulting to unpruned grid for atomic number  50.
 Defaulting to unpruned grid for atomic number  50.
 Defaulting to unpruned grid for atomic number  50.
 Defaulting to unpruned grid for atomic number  50.
 Defaulting to unpruned grid for atomic number  50.
 Defaulting to unpruned grid for atomic number  50.
 Defaulting to unpruned grid for atomic number  50.
 Defaulting to unpruned grid for atomic number  50.
 Defaulting to unpruned grid for atomic number  50.
 Defaulting to unpruned grid for atomic number  50.
 Defaulting to unpruned grid for atomic number  50.
 Defaulting to unpruned grid for atomic number  50.
 FoFCou: FMM=F IPFlag=           0 FMFlag=      100000 FMFlg1=           0
         NFxFlg=           0 DoJE=T BraDBF=F KetDBF=T FulRan=T
         Omega=  0.000000  0.000000  1.000000  0.000000  0.000000 ICntrl=     500 IOpCl=  0
         NMat0=    1 NMatS0=    1 NMatT0=    0 NMatD0=    1 NMtDS0=    0 NMtDT0=    0
         I1Cent=           4 NGrid=           0.
 Petite list used in FoFCou.
 Requested convergence on RMS density matrix=1.00D-08 within 128 cycles.
 Requested convergence on MAX density matrix=1.00D-06.
 Requested convergence on             energy=1.00D-06.
 No special actions if energy rises.
 Keep R1 ints in memory in canonical form, NReq=2397586.
 SCF Done:  E(RHF) =  -196.770279677     A.U. after   12 cycles
             Convg  =    0.4545D-08             -V/T =  2.0708
   1 Symmetry operations used in ECPInt.
 ECPInt:  NShTT=     630 NPrTT=    3262 LenC2=     621 LenP2D=    2658.
 LDataN:  DoStor=T MaxTD1= 5 Len=  102
 Calling FoFJK, ICntrl=      2127 FMM=F ISym2X=0 I1Cent= 0 IOpClX= 0 NMat=1 NMatS=1 NMatT=0.
 ***** Axes restored to original set *****
 -------------------------------------------------------------------
 Center     Atomic                   Forces (Hartrees/Bohr)
 Number     Number              X              Y              Z
 -------------------------------------------------------------------
      1        6          -0.000807053   -0.000255504   -0.000296248
      2        6           0.000335750   -0.001324405   -0.003947184
      3        1           0.000051471   -0.000363615    0.000136980
      4        1          -0.004704536   -0.003459208   -0.002296922
      5        1           0.000509474   -0.001382570    0.002856907
      6        1           0.004685238    0.002744109    0.001945319
      7       50           0.013481001    0.001682196    0.012130913
      8       50          -0.014043472    0.002375865   -0.010705855
      9        9           0.000299329   -0.000065751    0.000318162
     10       35           0.000192800    0.000048883   -0.000142071
 -------------------------------------------------------------------
 Cartesian Forces:  Max     0.014043472 RMS     0.005002795

 GradGradGradGradGradGradGradGradGradGradGradGradGradGradGradGradGradGrad
 Berny optimization.
 Using GEDIIS/GDIIS optimizer.
 Internal  Forces:  Max     0.009968739 RMS     0.003155145
 Search for a local minimum.
 Step number   2 out of a maximum of   43
 All quantities printed in internal units (Hartrees-Bohrs-Radians)
 Mixed Optimization -- RFO/linear search
 Update second derivatives using D2CorX and points    1    2
 DE= -4.40D-03 DEPred=-3.86D-03 R= 1.14D+00
 SS=  1.41D+00  RLast= 2.99D-01 DXNew= 5.0454D-01 8.9846D-01
 Trust test= 1.14D+00 RLast= 2.99D-01 DXMaxT set to 5.05D-01
 Use linear search instead of GDIIS.
     Eigenvalues ---    0.00026   0.00231   0.00341   0.01193   0.01691
     Eigenvalues ---    0.03150   0.03159   0.09756   0.11984   0.12615
     Eigenvalues ---    0.13877   0.14886   0.15901   0.15984   0.15995
     Eigenvalues ---    0.17130   0.21997   0.22177   0.24966   0.25000
     Eigenvalues ---    0.36173   0.49696   0.61908   0.933851000.00000
     Eigenvalues --- 1000.000001000.000001000.000001000.000001000.00000
     Eigenvalues --- 1000.000001000.000001000.00000
 RFO step:  Lambda=-1.51498948D-02 EMin= 2.63866624D-04
 Skip linear search -- no minimum in search direction.
 Maximum step size (   0.505) exceeded in Quadratic search.
    -- Step size scaled by   0.526
 Iteration  1 RMS(Cart)=  0.06096765 RMS(Int)=  0.02082926
 Iteration  2 RMS(Cart)=  0.02346962 RMS(Int)=  0.00615486
 Iteration  3 RMS(Cart)=  0.00071187 RMS(Int)=  0.00612605
 Iteration  4 RMS(Cart)=  0.00001408 RMS(Int)=  0.00612604
 Iteration  5 RMS(Cart)=  0.00000035 RMS(Int)=  0.00612604
 Variable       Old X    -DE/DX   Delta X   Delta X   Delta X     New X
                                 (Linear)    (Quad)   (Total)
    R1        2.49388  -0.00008   0.00000  -0.00041  -0.00041   2.49347
    R2        2.60116   0.00002   0.00000  -0.00022  -0.00022   2.60094
    R3        3.63552   0.00020   0.00000   0.00077   0.00077   3.63628
    R4        2.03819   0.00012   0.00000   0.00036   0.00036   2.03855
    R5        3.97438   0.00218   0.00000   0.01523   0.01523   3.98961
    R6        3.23134  -0.00490   0.00000  -0.07627  -0.07627   3.15507
    R7        3.20947  -0.00094   0.00000  -0.02298  -0.02298   3.18649
    R8        3.23797  -0.00459   0.00000  -0.07190  -0.07190   3.16607
    R9        4.86690   0.00997   0.00000   0.09015   0.09015   4.95705
    A1        2.12337   0.00053   0.00000   0.00200   0.00199   2.12537
    A2        2.24004  -0.00026   0.00000  -0.00120  -0.00120   2.23884
    A3        1.91975  -0.00026   0.00000  -0.00082  -0.00082   1.91893
    A4        2.00160  -0.00030   0.00000  -0.00163  -0.00163   1.99997
    A5        2.26074  -0.00007   0.00000  -0.00099  -0.00099   2.25975
    A6        2.01970   0.00037   0.00000   0.00251   0.00251   2.02221
    A7        1.98645  -0.00162   0.00000  -0.04339  -0.05358   1.93287
    A8        2.06608  -0.00156   0.00000  -0.03169  -0.04063   2.02545
    A9        2.13431   0.00055   0.00000  -0.02913  -0.03980   2.09452
   A10        1.97321   0.00028   0.00000  -0.04400  -0.06390   1.90932
   A11        2.07165  -0.00285   0.00000  -0.06365  -0.07649   1.99515
   A12        2.07936  -0.00267   0.00000  -0.06436  -0.07714   2.00222
    D1        0.00536  -0.00029   0.00000  -0.00968  -0.00968  -0.00432
    D2        3.09263  -0.00041   0.00000  -0.01203  -0.01203   3.08060
    D3       -3.12954  -0.00014   0.00000  -0.00491  -0.00491  -3.13445
    D4       -0.04227  -0.00027   0.00000  -0.00726  -0.00726  -0.04953
    D5        0.36819   0.00255   0.00000   0.10695   0.10485   0.47304
    D6        3.06348  -0.00297   0.00000  -0.12645  -0.12435   2.93913
    D7       -2.82819   0.00241   0.00000   0.10447   0.10237  -2.72582
    D8       -0.13290  -0.00311   0.00000  -0.12893  -0.12683  -0.25973
    D9        3.02307  -0.00085   0.00000  -0.01793  -0.01239   3.01068
   D10        0.49722   0.00816   0.00000   0.29596   0.28766   0.78488
   D11       -0.60454  -0.00751   0.00000  -0.27599  -0.26769  -0.87222
   D12       -3.13039   0.00151   0.00000   0.03790   0.03236  -3.09803
         Item               Value     Threshold  Converged?
 Maximum Force            0.009969     0.000450     NO 
 RMS     Force            0.003155     0.000300     NO 
 Maximum Displacement     0.246810     0.001800     NO 
 RMS     Displacement     0.080042     0.001200     NO 
 Predicted change in Energy=-7.668730D-03
 GradGradGradGradGradGradGradGradGradGradGradGradGradGradGradGradGradGrad

                          Input orientation:                          
 ---------------------------------------------------------------------
 Center     Atomic      Atomic             Coordinates (Angstroms)
 Number     Number       Type             X           Y           Z
 ---------------------------------------------------------------------
      1          6           0        1.085641   -2.314477   -0.034118
      2          6           0        0.051353   -1.496620    0.014880
      3          1           0       -0.909610   -1.985975   -0.013351
      4          1           0        1.411303    1.286964   -0.364645
      5          1           0       -2.339563    3.403786    0.170614
      6          1           0       -3.614137    0.997716    0.506799
      7         50           0        0.009661    0.603052    0.231339
      8         50           0       -2.303464    1.760448   -0.205509
      9          9           0        0.927211   -3.679605   -0.109541
     10         35           0        2.957949   -1.871887    0.001531
 ---------------------------------------------------------------------
                    Distance matrix (angstroms):
                    1          2          3          4          5
     1  C    0.000000
     2  C    1.319485   0.000000
     3  H    2.022219   1.078756   0.000000
     4  H    3.631209   3.121192   4.027676   0.000000
     5  H    6.668768   5.454788   5.579259   4.340096   0.000000
     6  H    5.775043   4.460887   4.060472   5.108632   2.743489
     7  Sn   3.120925   2.111212   2.758259   1.669591   3.656043
     8  Sn   5.302869   4.025199   4.001930   3.748200   1.686218
     9  F    1.376359   2.355425   2.500309   4.996621   7.805429
    10  Br   1.924238   2.930751   3.869269   3.536175   7.478298
                    6          7          8          9         10
     6  H    0.000000
     7  Sn   3.655618   0.000000
     8  Sn   1.675412   2.623156   0.000000
     9  F    6.548362   4.393091   6.327768   0.000000
    10  Br   7.189035   3.856234   6.396811   2.721043   0.000000
 Stoichiometry    C2H4BrFSn2
 Framework group  C1[X(C2H4BrFSn2)]
 Deg. of freedom    24
 Full point group                 C1      NOp   1
 Largest Abelian subgroup         C1      NOp   1
 Largest concise Abelian subgroup C1      NOp   1
                         Standard orientation:                         
 ---------------------------------------------------------------------
 Center     Atomic      Atomic             Coordinates (Angstroms)
 Number     Number       Type             X           Y           Z
 ---------------------------------------------------------------------
      1          6           0       -2.344961    1.033648    0.015115
      2          6           0       -1.029024    1.087540    0.095410
      3          1           0       -0.624338    2.084690    0.170483
      4          1           0       -0.221938   -1.857174   -0.551978
      5          1           0        3.986347   -1.056819    0.145302
      6          1           0        3.363310    1.552309    0.720635
      7         50           0        0.375427   -0.485930    0.189895
      8         50           0        2.888567    0.192117   -0.134644
      9          9           0       -3.119361    2.171342    0.033017
     10         35           0       -3.468140   -0.522902   -0.120209
 ---------------------------------------------------------------------
 Rotational constants (GHZ):      2.6603336      0.2247415      0.2086804
 Standard basis: LANL2DZ (5D, 7F)
 There are    59 symmetry adapted basis functions of A   symmetry.
 Integral buffers will be    131072 words long.
 Raffenetti 1 integral format.
 Two-electron integral symmetry is turned on.
    59 basis functions,   127 primitive gaussians,    59 cartesian basis functions
    20 alpha electrons       20 beta electrons
       nuclear repulsion energy       134.6017305760 Hartrees.
 NAtoms=   10 NActive=   10 NUniq=   10 SFac= 7.50D-01 NAtFMM=   80 NAOKFM=F Big=F
 One-electron integrals computed using PRISM.
   1 Symmetry operations used in ECPInt.
 ECPInt:  NShTT=     630 NPrTT=    3262 LenC2=     621 LenP2D=    2660.
 LDataN:  DoStor=T MaxTD1= 4 Len=   56
 NBasis=    59 RedAO= T  NBF=    59
 NBsUse=    59 1.00D-06 NBFU=    59
 Initial guess read from the read-write file.
 B after Tr=     0.000000    0.000000    0.000000
         Rot=    1.000000    0.000000    0.000000    0.000000 Ang=   0.00 deg.
 Initial guess orbital symmetries:
       Occupied  (A) (A) (A) (A) (A) (A) (A) (A) (A) (A) (A) (A)
                 (A) (A) (A) (A) (A) (A) (A) (A)
       Virtual   (A) (A) (A) (A) (A) (A) (A) (A) (A) (A) (A) (A)
                 (A) (A) (A) (A) (A) (A) (A) (A) (A) (A) (A) (A)
                 (A) (A) (A) (A) (A) (A) (A) (A) (A) (A) (A) (A)
                 (A) (A) (A)
 Harris functional with IExCor=  205 diagonalized for initial guess.
 ExpMin= 6.30D-02 ExpMax= 1.00D+04 ExpMxC= 3.50D+02 IAcc=2 IRadAn=         0 AccDes= 0.00D+00
 HarFok:  IExCor=  205 AccDes= 0.00D+00 IRadAn=         0 IDoV= 1
 ScaDFX=  1.000000  1.000000  1.000000  1.000000
 Defaulting to unpruned grid for atomic number  50.
 Defaulting to unpruned grid for atomic number  50.
 Defaulting to unpruned grid for atomic number  50.
 Defaulting to unpruned grid for atomic number  50.
 Defaulting to unpruned grid for atomic number  50.
 Defaulting to unpruned grid for atomic number  50.
 Defaulting to unpruned grid for atomic number  50.
 Defaulting to unpruned grid for atomic number  50.
 Defaulting to unpruned grid for atomic number  50.
 Defaulting to unpruned grid for atomic number  50.
 Defaulting to unpruned grid for atomic number  50.
 Defaulting to unpruned grid for atomic number  50.
 Defaulting to unpruned grid for atomic number  50.
 Defaulting to unpruned grid for atomic number  50.
 Defaulting to unpruned grid for atomic number  50.
 Defaulting to unpruned grid for atomic number  50.
 Defaulting to unpruned grid for atomic number  50.
 Defaulting to unpruned grid for atomic number  50.
 Defaulting to unpruned grid for atomic number  50.
 Defaulting to unpruned grid for atomic number  50.
 FoFCou: FMM=F IPFlag=           0 FMFlag=      100000 FMFlg1=           0
         NFxFlg=           0 DoJE=T BraDBF=F KetDBF=T FulRan=T
         Omega=  0.000000  0.000000  1.000000  0.000000  0.000000 ICntrl=     500 IOpCl=  0
         NMat0=    1 NMatS0=    1 NMatT0=    0 NMatD0=    1 NMtDS0=    0 NMtDT0=    0
         I1Cent=           4 NGrid=           0.
 Petite list used in FoFCou.
 Requested convergence on RMS density matrix=1.00D-08 within 128 cycles.
 Requested convergence on MAX density matrix=1.00D-06.
 Requested convergence on             energy=1.00D-06.
 No special actions if energy rises.
 Keep R1 ints in memory in canonical form, NReq=2397586.
 SCF Done:  E(RHF) =  -196.776486128     A.U. after   14 cycles
             Convg  =    0.5171D-08             -V/T =  2.0704
   1 Symmetry operations used in ECPInt.
 ECPInt:  NShTT=     630 NPrTT=    3262 LenC2=     621 LenP2D=    2660.
 LDataN:  DoStor=T MaxTD1= 5 Len=  102
 Calling FoFJK, ICntrl=      2127 FMM=F ISym2X=0 I1Cent= 0 IOpClX= 0 NMat=1 NMatS=1 NMatT=0.
 ***** Axes restored to original set *****
 -------------------------------------------------------------------
 Center     Atomic                   Forces (Hartrees/Bohr)
 Number     Number              X              Y              Z
 -------------------------------------------------------------------
      1        6          -0.001235451   -0.000614865    0.000226909
      2        6           0.001207423   -0.001358546   -0.003457888
      3        1          -0.000025887   -0.000429303    0.000567618
      4        1           0.008223752    0.001894275   -0.006124248
      5        1          -0.000498238    0.005369160    0.003381306
      6        1          -0.007264804   -0.003159344    0.005793873
      7       50           0.000667729   -0.003283590    0.013597674
      8       50          -0.002240495    0.002037330   -0.013806789
      9        9           0.000554519   -0.000445253   -0.000189302
     10       35           0.000611453   -0.000009864    0.000010847
 -------------------------------------------------------------------
 Cartesian Forces:  Max     0.013806789 RMS     0.004690855

 GradGradGradGradGradGradGradGradGradGradGradGradGradGradGradGradGradGrad
 Berny optimization.
 Using GEDIIS/GDIIS optimizer.
 Internal  Forces:  Max     0.011466480 RMS     0.003699157
 Search for a local minimum.
 Step number   3 out of a maximum of   43
 All quantities printed in internal units (Hartrees-Bohrs-Radians)
 Mixed Optimization -- RFO/linear search
 Update second derivatives using D2CorX and points    2    3
 DE= -6.21D-03 DEPred=-7.67D-03 R= 8.09D-01
 SS=  1.41D+00  RLast= 5.01D-01 DXNew= 8.4853D-01 1.5025D+00
 Trust test= 8.09D-01 RLast= 5.01D-01 DXMaxT set to 8.49D-01
 Use linear search instead of GDIIS.
     Eigenvalues ---    0.00229   0.00336   0.01155   0.01690   0.02444
     Eigenvalues ---    0.03150   0.03162   0.08260   0.11985   0.12618
     Eigenvalues ---    0.13676   0.13888   0.15769   0.15986   0.15996
     Eigenvalues ---    0.17130   0.21998   0.22453   0.24965   0.25000
     Eigenvalues ---    0.36173   0.49701   0.61911   1.014531000.00000
     Eigenvalues --- 1000.000001000.000001000.000001000.000001000.00000
     Eigenvalues --- 1000.000001000.000001000.00000
 RFO step:  Lambda=-2.06583831D-03 EMin= 2.29274646D-03
 Quartic linear search produced a step of  0.38402.
 Iteration  1 RMS(Cart)=  0.11496424 RMS(Int)=  0.02604426
 Iteration  2 RMS(Cart)=  0.04440344 RMS(Int)=  0.00485441
 Iteration  3 RMS(Cart)=  0.00156441 RMS(Int)=  0.00467120
 Iteration  4 RMS(Cart)=  0.00001126 RMS(Int)=  0.00467119
 Iteration  5 RMS(Cart)=  0.00000016 RMS(Int)=  0.00467119
 Variable       Old X    -DE/DX   Delta X   Delta X   Delta X     New X
                                 (Linear)    (Quad)   (Total)
    R1        2.49347   0.00061  -0.00016   0.00060   0.00045   2.49391
    R2        2.60094   0.00039  -0.00009   0.00017   0.00008   2.60102
    R3        3.63628   0.00059   0.00029   0.00227   0.00257   3.63885
    R4        2.03855   0.00020   0.00014   0.00051   0.00065   2.03921
    R5        3.98961   0.00316   0.00585   0.01522   0.02107   4.01068
    R6        3.15507   0.00987  -0.02929   0.01921  -0.01008   3.14499
    R7        3.18649   0.00600  -0.00883   0.01528   0.00645   3.19295
    R8        3.16607   0.00958  -0.02761   0.02163  -0.00598   3.16009
    R9        4.95705   0.01147   0.03462   0.07515   0.10977   5.06681
    A1        2.12537   0.00087   0.00077   0.00215   0.00291   2.12828
    A2        2.23884  -0.00016  -0.00046  -0.00021  -0.00067   2.23817
    A3        1.91893  -0.00070  -0.00031  -0.00191  -0.00223   1.91670
    A4        1.99997  -0.00061  -0.00063  -0.00150  -0.00213   1.99784
    A5        2.25975   0.00056  -0.00038   0.00176   0.00138   2.26112
    A6        2.02221   0.00004   0.00096  -0.00003   0.00093   2.02315
    A7        1.93287  -0.00329  -0.02058  -0.04221  -0.07390   1.85897
    A8        2.02545  -0.00065  -0.01560  -0.01473  -0.03914   1.98631
    A9        2.09452   0.00108  -0.01528  -0.01440  -0.04207   2.05244
   A10        1.90932  -0.00166  -0.02454  -0.00332  -0.03966   1.86966
   A11        1.99515  -0.00185  -0.02938  -0.00647  -0.04236   1.95279
   A12        2.00222  -0.00093  -0.02962  -0.00593  -0.04202   1.96021
    D1       -0.00432   0.00031  -0.00372  -0.00123  -0.00494  -0.00927
    D2        3.08060   0.00006  -0.00462   0.00382  -0.00080   3.07981
    D3       -3.13445   0.00013  -0.00189  -0.00415  -0.00604  -3.14049
    D4       -0.04953  -0.00011  -0.00279   0.00090  -0.00189  -0.05142
    D5        0.47304   0.00151   0.04026   0.01641   0.05335   0.52639
    D6        2.93913  -0.00162  -0.04775  -0.07819  -0.12261   2.81651
    D7       -2.72582   0.00124   0.03931   0.02148   0.05747  -2.66835
    D8       -0.25973  -0.00189  -0.04870  -0.07312  -0.11850  -0.37823
    D9        3.01068   0.00015  -0.00476   0.23649   0.23441  -3.03809
   D10        0.78488   0.00510   0.11047   0.25274   0.35675   1.14163
   D11       -0.87222  -0.00514  -0.10280   0.12138   0.02504  -0.84719
   D12       -3.09803  -0.00018   0.01243   0.13762   0.14737  -2.95065
         Item               Value     Threshold  Converged?
 Maximum Force            0.011466     0.000450     NO 
 RMS     Force            0.003699     0.000300     NO 
 Maximum Displacement     0.486796     0.001800     NO 
 RMS     Displacement     0.152687     0.001200     NO 
 Predicted change in Energy=-2.707067D-03
 GradGradGradGradGradGradGradGradGradGradGradGradGradGradGradGradGradGrad

                          Input orientation:                          
 ---------------------------------------------------------------------
 Center     Atomic      Atomic             Coordinates (Angstroms)
 Number     Number       Type             X           Y           Z
 ---------------------------------------------------------------------
      1          6           0        1.105642   -2.308997   -0.073107
      2          6           0        0.058784   -1.513187    0.038418
      3          1           0       -0.893809   -2.015768   -0.028206
      4          1           0        1.366712    1.223744   -0.245073
      5          1           0       -2.310811    3.388309   -0.086987
      6          1           0       -3.620162    1.153882    0.692772
      7         50           0       -0.018038    0.574724    0.411430
      8         50           0       -2.356071    1.707340   -0.251776
      9          9           0        0.972128   -3.667690   -0.248059
     10         35           0        2.971970   -1.838956   -0.011412
 ---------------------------------------------------------------------
                    Distance matrix (angstroms):
                    1          2          3          4          5
     1  C    0.000000
     2  C    1.319721   0.000000
     3  H    2.021337   1.079101   0.000000
     4  H    3.546546   3.046611   3.956189   0.000000
     5  H    6.643165   5.445675   5.587075   4.270188   0.000000
     6  H    5.908581   4.590869   4.242581   5.074776   2.704643
     7  Sn   3.132615   2.122360   2.769640   1.664258   3.663536
     8  Sn   5.305313   4.035781   4.006211   3.754067   1.689634
     9  F    1.376401   2.357572   2.501780   4.907324   7.784007
    10  Br   1.925597   2.931768   3.869857   3.465773   7.432213
                    6          7          8          9         10
     6  H    0.000000
     7  Sn   3.659218   0.000000
     8  Sn   1.672248   2.681242   0.000000
     9  F    6.724719   4.406067   6.322015   0.000000
    10  Br   7.273868   3.865849   6.404842   2.720227   0.000000
 Stoichiometry    C2H4BrFSn2
 Framework group  C1[X(C2H4BrFSn2)]
 Deg. of freedom    24
 Full point group                 C1      NOp   1
 Largest Abelian subgroup         C1      NOp   1
 Largest concise Abelian subgroup C1      NOp   1
                         Standard orientation:                         
 ---------------------------------------------------------------------
 Center     Atomic      Atomic             Coordinates (Angstroms)
 Number     Number       Type             X           Y           Z
 ---------------------------------------------------------------------
      1          6           0       -2.340257    1.038105    0.045937
      2          6           0       -1.028958    1.075254    0.190083
      3          1           0       -0.621261    2.066172    0.317844
      4          1           0       -0.266474   -1.759979   -0.623498
      5          1           0        3.938520   -1.109654   -0.263484
      6          1           0        3.491359    1.254649    0.971512
      7         50           0        0.365316   -0.521661    0.291468
      8         50           0        2.895635    0.218100   -0.197715
      9          9           0       -3.108226    2.180066    0.070997
     10         35           0       -3.468582   -0.502111   -0.204146
 ---------------------------------------------------------------------
 Rotational constants (GHZ):      2.4703978      0.2233036      0.2081286
 Standard basis: LANL2DZ (5D, 7F)
 There are    59 symmetry adapted basis functions of A   symmetry.
 Integral buffers will be    131072 words long.
 Raffenetti 1 integral format.
 Two-electron integral symmetry is turned on.
    59 basis functions,   127 primitive gaussians,    59 cartesian basis functions
    20 alpha electrons       20 beta electrons
       nuclear repulsion energy       134.4642171974 Hartrees.
 NAtoms=   10 NActive=   10 NUniq=   10 SFac= 7.50D-01 NAtFMM=   80 NAOKFM=F Big=F
 One-electron integrals computed using PRISM.
   1 Symmetry operations used in ECPInt.
 ECPInt:  NShTT=     630 NPrTT=    3262 LenC2=     621 LenP2D=    2663.
 LDataN:  DoStor=T MaxTD1= 4 Len=   56
 NBasis=    59 RedAO= T  NBF=    59
 NBsUse=    59 1.00D-06 NBFU=    59
 Initial guess read from the read-write file.
 B after Tr=     0.000000    0.000000    0.000000
         Rot=    1.000000    0.000000    0.000000    0.000000 Ang=   0.00 deg.
 Initial guess orbital symmetries:
       Occupied  (A) (A) (A) (A) (A) (A) (A) (A) (A) (A) (A) (A)
                 (A) (A) (A) (A) (A) (A) (A) (A)
       Virtual   (A) (A) (A) (A) (A) (A) (A) (A) (A) (A) (A) (A)
                 (A) (A) (A) (A) (A) (A) (A) (A) (A) (A) (A) (A)
                 (A) (A) (A) (A) (A) (A) (A) (A) (A) (A) (A) (A)
                 (A) (A) (A)
 Harris functional with IExCor=  205 diagonalized for initial guess.
 ExpMin= 6.30D-02 ExpMax= 1.00D+04 ExpMxC= 3.50D+02 IAcc=2 IRadAn=         0 AccDes= 0.00D+00
 HarFok:  IExCor=  205 AccDes= 0.00D+00 IRadAn=         0 IDoV= 1
 ScaDFX=  1.000000  1.000000  1.000000  1.000000
 Defaulting to unpruned grid for atomic number  50.
 Defaulting to unpruned grid for atomic number  50.
 Defaulting to unpruned grid for atomic number  50.
 Defaulting to unpruned grid for atomic number  50.
 Defaulting to unpruned grid for atomic number  50.
 Defaulting to unpruned grid for atomic number  50.
 Defaulting to unpruned grid for atomic number  50.
 Defaulting to unpruned grid for atomic number  50.
 Defaulting to unpruned grid for atomic number  50.
 Defaulting to unpruned grid for atomic number  50.
 Defaulting to unpruned grid for atomic number  50.
 Defaulting to unpruned grid for atomic number  50.
 Defaulting to unpruned grid for atomic number  50.
 Defaulting to unpruned grid for atomic number  50.
 Defaulting to unpruned grid for atomic number  50.
 Defaulting to unpruned grid for atomic number  50.
 Defaulting to unpruned grid for atomic number  50.
 Defaulting to unpruned grid for atomic number  50.
 Defaulting to unpruned grid for atomic number  50.
 Defaulting to unpruned grid for atomic number  50.
 FoFCou: FMM=F IPFlag=           0 FMFlag=      100000 FMFlg1=           0
         NFxFlg=           0 DoJE=T BraDBF=F KetDBF=T FulRan=T
         Omega=  0.000000  0.000000  1.000000  0.000000  0.000000 ICntrl=     500 IOpCl=  0
         NMat0=    1 NMatS0=    1 NMatT0=    0 NMatD0=    1 NMtDS0=    0 NMtDT0=    0
         I1Cent=           4 NGrid=           0.
 Petite list used in FoFCou.
 Requested convergence on RMS density matrix=1.00D-08 within 128 cycles.
 Requested convergence on MAX density matrix=1.00D-06.
 Requested convergence on             energy=1.00D-06.
 No special actions if energy rises.
 Keep R1 ints in memory in canonical form, NReq=2397586.
 SCF Done:  E(RHF) =  -196.778421042     A.U. after   13 cycles
             Convg  =    0.5411D-08             -V/T =  2.0704
   1 Symmetry operations used in ECPInt.
 ECPInt:  NShTT=     630 NPrTT=    3262 LenC2=     621 LenP2D=    2663.
 LDataN:  DoStor=T MaxTD1= 5 Len=  102
 Calling FoFJK, ICntrl=      2127 FMM=F ISym2X=0 I1Cent= 0 IOpClX= 0 NMat=1 NMatS=1 NMatT=0.
 ***** Axes restored to original set *****
 -------------------------------------------------------------------
 Center     Atomic                   Forces (Hartrees/Bohr)
 Number     Number              X              Y              Z
 -------------------------------------------------------------------
      1        6          -0.001084830    0.000254170    0.000606639
      2        6           0.000756080   -0.001283154    0.000099046
      3        1           0.000097004   -0.000577719    0.000639998
      4        1           0.011671102    0.004094786   -0.007307904
      5        1          -0.000864182    0.007301084    0.003666619
      6        1          -0.010211665   -0.002698312    0.006249969
      7       50          -0.004800353   -0.004684077    0.008794048
      8       50           0.003507719   -0.001516298   -0.012107683
      9        9           0.000369550   -0.000678209   -0.000904220
     10       35           0.000559575   -0.000212272    0.000263490
 -------------------------------------------------------------------
 Cartesian Forces:  Max     0.012107683 RMS     0.004880081

 GradGradGradGradGradGradGradGradGradGradGradGradGradGradGradGradGradGrad
 Berny optimization.
 Using GEDIIS/GDIIS optimizer.
 Internal  Forces:  Max     0.014190596 RMS     0.004066323
 Search for a local minimum.
 Step number   4 out of a maximum of   43
 All quantities printed in internal units (Hartrees-Bohrs-Radians)
 Mixed Optimization -- RFO/linear search
 Update second derivatives using D2CorX and points    3    4
 DE= -1.93D-03 DEPred=-2.71D-03 R= 7.15D-01
 SS=  1.41D+00  RLast= 5.16D-01 DXNew= 1.4270D+00 1.5486D+00
 Trust test= 7.15D-01 RLast= 5.16D-01 DXMaxT set to 1.43D+00
 Use linear search instead of GDIIS.
     Eigenvalues ---    0.00229   0.00597   0.01589   0.01838   0.02967
     Eigenvalues ---    0.03150   0.03196   0.07871   0.12007   0.12609
     Eigenvalues ---    0.12755   0.13866   0.15652   0.15990   0.16344
     Eigenvalues ---    0.17130   0.21996   0.22943   0.24970   0.25009
     Eigenvalues ---    0.36172   0.49692   0.61904   0.837351000.00000
     Eigenvalues --- 1000.000001000.000001000.000001000.000001000.00000
     Eigenvalues --- 1000.000001000.000001000.00000
 RFO step:  Lambda=-1.54358922D-03 EMin= 2.28982058D-03
 Quartic linear search produced a step of -0.01848.
 Iteration  1 RMS(Cart)=  0.07251832 RMS(Int)=  0.00267051
 Iteration  2 RMS(Cart)=  0.00348791 RMS(Int)=  0.00032263
 Iteration  3 RMS(Cart)=  0.00000712 RMS(Int)=  0.00032259
 Iteration  4 RMS(Cart)=  0.00000000 RMS(Int)=  0.00032259
 Variable       Old X    -DE/DX   Delta X   Delta X   Delta X     New X
                                 (Linear)    (Quad)   (Total)
    R1        2.49391   0.00026  -0.00001  -0.00023  -0.00024   2.49367
    R2        2.60102   0.00075   0.00000   0.00044   0.00044   2.60146
    R3        3.63885   0.00050  -0.00005   0.00137   0.00132   3.64017
    R4        2.03921   0.00014  -0.00001   0.00045   0.00044   2.03964
    R5        4.01068   0.00236  -0.00039   0.01084   0.01045   4.02113
    R6        3.14499   0.01419   0.00019  -0.01116  -0.01097   3.13402
    R7        3.19295   0.00760  -0.00012   0.00027   0.00015   3.19309
    R8        3.16009   0.01214   0.00011  -0.01854  -0.01843   3.14166
    R9        5.06681   0.00845  -0.00203   0.07059   0.06857   5.13538
    A1        2.12828   0.00041  -0.00005   0.00018   0.00012   2.12840
    A2        2.23817   0.00035   0.00001   0.00178   0.00179   2.23996
    A3        1.91670  -0.00076   0.00004  -0.00191  -0.00188   1.91483
    A4        1.99784  -0.00082   0.00004  -0.00178  -0.00184   1.99600
    A5        2.26112   0.00067  -0.00003   0.00181   0.00169   2.26281
    A6        2.02315   0.00014  -0.00002   0.00110   0.00099   2.02413
    A7        1.85897  -0.00159   0.00137  -0.03722  -0.03693   1.82204
    A8        1.98631   0.00193   0.00072  -0.00827  -0.00831   1.97800
    A9        2.05244  -0.00041   0.00078  -0.02928  -0.02957   2.02287
   A10        1.86966  -0.00328   0.00073  -0.02004  -0.01929   1.85037
   A11        1.95279  -0.00147   0.00078  -0.01501  -0.01421   1.93858
   A12        1.96021   0.00370   0.00078   0.00800   0.00879   1.96900
    D1       -0.00927   0.00091   0.00009  -0.00221  -0.00211  -0.01138
    D2        3.07981   0.00088   0.00001   0.02555   0.02556   3.10536
    D3       -3.14049   0.00043   0.00011  -0.00943  -0.00931   3.13339
    D4       -0.05142   0.00040   0.00003   0.01833   0.01836  -0.03306
    D5        0.52639   0.00025  -0.00099   0.00442   0.00316   0.52955
    D6        2.81651  -0.00014   0.00227  -0.07286  -0.07034   2.74617
    D7       -2.66835   0.00020  -0.00106   0.03244   0.03113  -2.63723
    D8       -0.37823  -0.00019   0.00219  -0.04484  -0.04238  -0.42060
    D9       -3.03809  -0.00294  -0.00433  -0.08441  -0.08900  -3.12710
   D10        1.14163  -0.00027  -0.00659  -0.05347  -0.06031   1.08132
   D11       -0.84719  -0.00378  -0.00046  -0.17321  -0.17342  -1.02061
   D12       -2.95065  -0.00111  -0.00272  -0.14227  -0.14473  -3.09538
         Item               Value     Threshold  Converged?
 Maximum Force            0.014191     0.000450     NO 
 RMS     Force            0.004066     0.000300     NO 
 Maximum Displacement     0.241733     0.001800     NO 
 RMS     Displacement     0.072529     0.001200     NO 
 Predicted change in Energy=-8.318109D-04
 GradGradGradGradGradGradGradGradGradGradGradGradGradGradGradGradGradGrad

                          Input orientation:                          
 ---------------------------------------------------------------------
 Center     Atomic      Atomic             Coordinates (Angstroms)
 Number     Number       Type             X           Y           Z
 ---------------------------------------------------------------------
      1          6           0        1.108445   -2.305421   -0.066610
      2          6           0        0.067795   -1.509336    0.090309
      3          1           0       -0.886981   -2.010774    0.046488
      4          1           0        1.362137    1.175790   -0.294175
      5          1           0       -2.327761    3.398840    0.011359
      6          1           0       -3.648102    1.136169    0.564852
      7         50           0        0.003999    0.586414    0.453192
      8         50           0       -2.347379    1.734570   -0.280093
      9          9           0        0.966231   -3.661659   -0.255057
     10         35           0        2.977958   -1.841191   -0.072266
 ---------------------------------------------------------------------
                    Distance matrix (angstroms):
                    1          2          3          4          5
     1  C    0.000000
     2  C    1.319594   0.000000
     3  H    2.020232   1.079333   0.000000
     4  H    3.497853   3.005503   3.915198   0.000000
     5  H    6.659744   5.462152   5.598304   4.318640   0.000000
     6  H    5.904915   4.586041   4.218499   5.083502   2.677562
     7  Sn   3.138902   2.127891   2.775724   1.658452   3.679954
     8  Sn   5.320697   4.061180   4.033239   3.751392   1.689711
     9  F    1.376632   2.357745   2.500149   4.853780   7.795640
    10  Br   1.926297   2.933531   3.870481   3.429620   7.457585
                    6          7          8          9         10
     6  H    0.000000
     7  Sn   3.694934   0.000000
     8  Sn   1.662497   2.717526   0.000000
     9  F    6.706972   4.412893   6.332450   0.000000
    10  Br   7.292137   3.874766   6.417824   2.719294   0.000000
 Stoichiometry    C2H4BrFSn2
 Framework group  C1[X(C2H4BrFSn2)]
 Deg. of freedom    24
 Full point group                 C1      NOp   1
 Largest Abelian subgroup         C1      NOp   1
 Largest concise Abelian subgroup C1      NOp   1
                         Standard orientation:                         
 ---------------------------------------------------------------------
 Center     Atomic      Atomic             Coordinates (Angstroms)
 Number     Number       Type             X           Y           Z
 ---------------------------------------------------------------------
      1          6           0       -2.343885    1.036898    0.074109
      2          6           0       -1.037553    1.065759    0.258482
      3          1           0       -0.631468    2.053744    0.413208
      4          1           0       -0.287415   -1.694786   -0.663325
      5          1           0        3.960998   -1.093723   -0.173061
      6          1           0        3.501006    1.333385    0.859842
      7         50           0        0.358768   -0.538134    0.334205
      8         50           0        2.905872    0.224962   -0.226946
      9          9           0       -3.108020    2.181784    0.095339
     10         35           0       -3.471837   -0.491199   -0.247234
 ---------------------------------------------------------------------
 Rotational constants (GHZ):      2.3793393      0.2217990      0.2072548
 Standard basis: LANL2DZ (5D, 7F)
 There are    59 symmetry adapted basis functions of A   symmetry.
 Integral buffers will be    131072 words long.
 Raffenetti 1 integral format.
 Two-electron integral symmetry is turned on.
    59 basis functions,   127 primitive gaussians,    59 cartesian basis functions
    20 alpha electrons       20 beta electrons
       nuclear repulsion energy       134.3863749735 Hartrees.
 NAtoms=   10 NActive=   10 NUniq=   10 SFac= 7.50D-01 NAtFMM=   80 NAOKFM=F Big=F
 One-electron integrals computed using PRISM.
   1 Symmetry operations used in ECPInt.
 ECPInt:  NShTT=     630 NPrTT=    3262 LenC2=     621 LenP2D=    2665.
 LDataN:  DoStor=T MaxTD1= 4 Len=   56
 NBasis=    59 RedAO= T  NBF=    59
 NBsUse=    59 1.00D-06 NBFU=    59
 Initial guess read from the read-write file.
 B after Tr=     0.000000    0.000000    0.000000
         Rot=    1.000000    0.000000    0.000000    0.000000 Ang=   0.00 deg.
 Initial guess orbital symmetries:
       Occupied  (A) (A) (A) (A) (A) (A) (A) (A) (A) (A) (A) (A)
                 (A) (A) (A) (A) (A) (A) (A) (A)
       Virtual   (A) (A) (A) (A) (A) (A) (A) (A) (A) (A) (A) (A)
                 (A) (A) (A) (A) (A) (A) (A) (A) (A) (A) (A) (A)
                 (A) (A) (A) (A) (A) (A) (A) (A) (A) (A) (A) (A)
                 (A) (A) (A)
 Harris functional with IExCor=  205 diagonalized for initial guess.
 ExpMin= 6.30D-02 ExpMax= 1.00D+04 ExpMxC= 3.50D+02 IAcc=2 IRadAn=         0 AccDes= 0.00D+00
 HarFok:  IExCor=  205 AccDes= 0.00D+00 IRadAn=         0 IDoV= 1
 ScaDFX=  1.000000  1.000000  1.000000  1.000000
 Defaulting to unpruned grid for atomic number  50.
 Defaulting to unpruned grid for atomic number  50.
 Defaulting to unpruned grid for atomic number  50.
 Defaulting to unpruned grid for atomic number  50.
 Defaulting to unpruned grid for atomic number  50.
 Defaulting to unpruned grid for atomic number  50.
 Defaulting to unpruned grid for atomic number  50.
 Defaulting to unpruned grid for atomic number  50.
 Defaulting to unpruned grid for atomic number  50.
 Defaulting to unpruned grid for atomic number  50.
 Defaulting to unpruned grid for atomic number  50.
 Defaulting to unpruned grid for atomic number  50.
 Defaulting to unpruned grid for atomic number  50.
 Defaulting to unpruned grid for atomic number  50.
 Defaulting to unpruned grid for atomic number  50.
 Defaulting to unpruned grid for atomic number  50.
 Defaulting to unpruned grid for atomic number  50.
 Defaulting to unpruned grid for atomic number  50.
 Defaulting to unpruned grid for atomic number  50.
 Defaulting to unpruned grid for atomic number  50.
 FoFCou: FMM=F IPFlag=           0 FMFlag=      100000 FMFlg1=           0
         NFxFlg=           0 DoJE=T BraDBF=F KetDBF=T FulRan=T
         Omega=  0.000000  0.000000  1.000000  0.000000  0.000000 ICntrl=     500 IOpCl=  0
         NMat0=    1 NMatS0=    1 NMatT0=    0 NMatD0=    1 NMtDS0=    0 NMtDT0=    0
         I1Cent=           4 NGrid=           0.
 Petite list used in FoFCou.
 Requested convergence on RMS density matrix=1.00D-08 within 128 cycles.
 Requested convergence on MAX density matrix=1.00D-06.
 Requested convergence on             energy=1.00D-06.
 No special actions if energy rises.
 Keep R1 ints in memory in canonical form, NReq=2397586.
 SCF Done:  E(RHF) =  -196.779281272     A.U. after   13 cycles
             Convg  =    0.5429D-08             -V/T =  2.0704
   1 Symmetry operations used in ECPInt.
 ECPInt:  NShTT=     630 NPrTT=    3262 LenC2=     621 LenP2D=    2665.
 LDataN:  DoStor=T MaxTD1= 5 Len=  102
 Calling FoFJK, ICntrl=      2127 FMM=F ISym2X=0 I1Cent= 0 IOpClX= 0 NMat=1 NMatS=1 NMatT=0.
 ***** Axes restored to original set *****
 -------------------------------------------------------------------
 Center     Atomic                   Forces (Hartrees/Bohr)
 Number     Number              X              Y              Z
 -------------------------------------------------------------------
      1        6          -0.001047864    0.000462908    0.000270720
      2        6           0.000130862   -0.000909434   -0.001109287
      3        1           0.000148486   -0.000786325    0.001180250
      4        1           0.013725382    0.005693508   -0.007482781
      5        1          -0.001239227    0.007655486    0.002896859
      6        1          -0.013326972   -0.004398761    0.008231598
      7       50          -0.009528476   -0.004975484    0.008048556
      8       50           0.010366553   -0.001492125   -0.011952474
      9        9           0.000356006   -0.001062678   -0.000553327
     10       35           0.000415251   -0.000187094    0.000469885
 -------------------------------------------------------------------
 Cartesian Forces:  Max     0.013725382 RMS     0.005917231

 GradGradGradGradGradGradGradGradGradGradGradGradGradGradGradGradGradGrad
 Berny optimization.
 Using GEDIIS/GDIIS optimizer.
 Internal  Forces:  Max     0.016635379 RMS     0.004465785
 Search for a local minimum.
 Step number   5 out of a maximum of   43
 All quantities printed in internal units (Hartrees-Bohrs-Radians)
 Mixed Optimization -- RFO/linear search
 Update second derivatives using D2CorX and points    3    4    5
 DE= -8.60D-04 DEPred=-8.32D-04 R= 1.03D+00
 SS=  1.41D+00  RLast= 2.82D-01 DXNew= 2.4000D+00 8.4656D-01
 Trust test= 1.03D+00 RLast= 2.82D-01 DXMaxT set to 1.43D+00
 Use linear search instead of GDIIS.
     Eigenvalues ---    0.00228   0.00787   0.01681   0.01846   0.03133
     Eigenvalues ---    0.03183   0.03666   0.07264   0.12035   0.12469
     Eigenvalues ---    0.12675   0.13875   0.15381   0.15996   0.16132
     Eigenvalues ---    0.17133   0.21993   0.22752   0.24971   0.24992
     Eigenvalues ---    0.36172   0.49662   0.61440   0.640301000.00000
     Eigenvalues --- 1000.000001000.000001000.000001000.000001000.00000
     Eigenvalues --- 1000.000001000.000001000.00000
 RFO step:  Lambda=-1.60533901D-03 EMin= 2.27679696D-03
 Quartic linear search produced a step of  0.14833.
 Iteration  1 RMS(Cart)=  0.06245893 RMS(Int)=  0.00127342
 Iteration  2 RMS(Cart)=  0.00188352 RMS(Int)=  0.00027873
 Iteration  3 RMS(Cart)=  0.00000206 RMS(Int)=  0.00027872
 Iteration  4 RMS(Cart)=  0.00000000 RMS(Int)=  0.00027872
 Variable       Old X    -DE/DX   Delta X   Delta X   Delta X     New X
                                 (Linear)    (Quad)   (Total)
    R1        2.49367   0.00023  -0.00004  -0.00045  -0.00048   2.49319
    R2        2.60146   0.00109   0.00006   0.00183   0.00190   2.60336
    R3        3.64017   0.00036   0.00020   0.00140   0.00160   3.64177
    R4        2.03964   0.00019   0.00006   0.00078   0.00084   2.04048
    R5        4.02113   0.00240   0.00155   0.01651   0.01806   4.03919
    R6        3.13402   0.01664  -0.00163   0.03691   0.03528   3.16930
    R7        3.19309   0.00803   0.00002   0.01795   0.01797   3.21106
    R8        3.14166   0.01619  -0.00273   0.03327   0.03053   3.17220
    R9        5.13538   0.00460   0.01017   0.06890   0.07907   5.21445
    A1        2.12840   0.00059   0.00002   0.00060   0.00061   2.12901
    A2        2.23996   0.00008   0.00027   0.00235   0.00261   2.24257
    A3        1.91483  -0.00067  -0.00028  -0.00298  -0.00327   1.91156
    A4        1.99600  -0.00086  -0.00027  -0.00456  -0.00486   1.99114
    A5        2.26281   0.00053   0.00025   0.00230   0.00252   2.26534
    A6        2.02413   0.00031   0.00015   0.00238   0.00250   2.02663
    A7        1.82204   0.00010  -0.00548  -0.02440  -0.03086   1.79117
    A8        1.97800   0.00058  -0.00123  -0.00043  -0.00228   1.97572
    A9        2.02287   0.00019  -0.00439  -0.02731  -0.03256   1.99031
   A10        1.85037  -0.00301  -0.00286  -0.02407  -0.02694   1.82342
   A11        1.93858   0.00055  -0.00211   0.00477   0.00266   1.94124
   A12        1.96900   0.00241   0.00130   0.02987   0.03117   2.00017
    D1       -0.01138   0.00075  -0.00031   0.00761   0.00731  -0.00407
    D2        3.10536   0.00010   0.00379   0.01396   0.01774   3.12310
    D3        3.13339   0.00105  -0.00138   0.01788   0.01651  -3.13329
    D4       -0.03306   0.00040   0.00272   0.02423   0.02694  -0.00612
    D5        0.52955   0.00003   0.00047  -0.00780  -0.00754   0.52201
    D6        2.74617   0.00071  -0.01043  -0.06056  -0.07081   2.67536
    D7       -2.63723  -0.00064   0.00462  -0.00145   0.00298  -2.63425
    D8       -0.42060   0.00004  -0.00629  -0.05421  -0.06029  -0.48090
    D9       -3.12710  -0.00204  -0.01320   0.07694   0.06346  -3.06363
   D10        1.08132  -0.00021  -0.00895   0.08428   0.07506   1.15637
   D11       -1.02061  -0.00129  -0.02572   0.02174  -0.00370  -1.02431
   D12       -3.09538   0.00054  -0.02147   0.02908   0.00789  -3.08749
         Item               Value     Threshold  Converged?
 Maximum Force            0.016635     0.000450     NO 
 RMS     Force            0.004466     0.000300     NO 
 Maximum Displacement     0.166758     0.001800     NO 
 RMS     Displacement     0.063026     0.001200     NO 
 Predicted change in Energy=-8.426025D-04
 GradGradGradGradGradGradGradGradGradGradGradGradGradGradGradGradGradGrad

                          Input orientation:                          
 ---------------------------------------------------------------------
 Center     Atomic      Atomic             Coordinates (Angstroms)
 Number     Number       Type             X           Y           Z
 ---------------------------------------------------------------------
      1          6           0        1.127150   -2.311170   -0.084816
      2          6           0        0.083076   -1.531580    0.122072
      3          1           0       -0.865005   -2.047443    0.091284
      4          1           0        1.356924    1.146394   -0.270895
      5          1           0       -2.328808    3.418828   -0.048685
      6          1           0       -3.721556    1.224413    0.564455
      7         50           0        0.000437    0.565675    0.526256
      8         50           0       -2.364526    1.735933   -0.280942
      9          9           0        0.994415   -3.663283   -0.312970
     10         35           0        2.994238   -1.834365   -0.107760
 ---------------------------------------------------------------------
                    Distance matrix (angstroms):
                    1          2          3          4          5
     1  C    0.000000
     2  C    1.319339   0.000000
     3  H    2.017238   1.079778   0.000000
     4  H    3.470183   2.991431   3.907523   0.000000
     5  H    6.691623   5.509345   5.660603   4.335660   0.000000
     6  H    6.035881   4.718731   4.369075   5.147316   2.670420
     7  Sn   3.149465   2.137446   2.786858   1.677123   3.727790
     8  Sn   5.348767   4.102416   4.086692   3.767870   1.699221
     9  F    1.377637   2.358804   2.496358   4.823502   7.827512
    10  Br   1.927144   2.935876   3.870243   3.404752   7.478926
                    6          7          8          9         10
     6  H    0.000000
     7  Sn   3.780030   0.000000
     8  Sn   1.678654   2.759370   0.000000
     9  F    6.848345   4.424520   6.358855   0.000000
    10  Br   7.410121   3.889089   6.441535   2.717782   0.000000
 Stoichiometry    C2H4BrFSn2
 Framework group  C1[X(C2H4BrFSn2)]
 Deg. of freedom    24
 Full point group                 C1      NOp   1
 Largest Abelian subgroup         C1      NOp   1
 Largest concise Abelian subgroup C1      NOp   1
                         Standard orientation:                         
 ---------------------------------------------------------------------
 Center     Atomic      Atomic             Coordinates (Angstroms)
 Number     Number       Type             X           Y           Z
 ---------------------------------------------------------------------
      1          6           0       -2.354933    1.035296    0.091080
      2          6           0       -1.055550    1.058403    0.318513
      3          1           0       -0.660016    2.043790    0.514689
      4          1           0       -0.308901   -1.654328   -0.697489
[...]
 Electronic               0.000              0.000              0.000
 Translational            0.889              2.981             43.551
 Rotational               0.889              2.981             32.413
 Vibrational             33.018             24.810             32.562
 Vibration     1          0.593              1.987              7.753
 Vibration     2          0.594              1.981              5.255
 Vibration     3          0.599              1.965              4.007
 Vibration     4          0.613              1.918              2.871
 Vibration     5          0.619              1.899              2.626
 Vibration     6          0.639              1.835              2.103
 Vibration     7          0.679              1.712              1.540
 Vibration     8          0.695              1.666              1.393
 Vibration     9          0.737              1.547              1.106
 Vibration    10          0.762              1.481              0.982
 Vibration    11          0.836              1.295              0.711
 Vibration    12          0.856              1.249              0.657
 Vibration    13          0.879              1.196              0.600
                       Q            Log10(Q)             Ln(Q)
 Total Bot       0.599914D-02         -2.221911         -5.116140
 Total V=0       0.593121D+19         18.773144         43.226761
 Vib (Bot)       0.819696D-17        -17.086347        -39.342769
 Vib (Bot)    1  0.181932D+02          1.259910          2.901049
 Vib (Bot)    2  0.516267D+01          0.712874          1.641453
 Vib (Bot)    3  0.273233D+01          0.436533          1.005153
 Vib (Bot)    4  0.150598D+01          0.177819          0.409444
 Vib (Bot)    5  0.131798D+01          0.119909          0.276100
 Vib (Bot)    6  0.979315D+00         -0.009078         -0.020902
 Vib (Bot)    7  0.689402D+00         -0.161527         -0.371930
 Vib (Bot)    8  0.623561D+00         -0.205121         -0.472309
 Vib (Bot)    9  0.502724D+00         -0.298671         -0.687715
 Vib (Bot)   10  0.453167D+00         -0.343742         -0.791495
 Vib (Bot)   11  0.348754D+00         -0.457480         -1.053387
 Vib (Bot)   12  0.328393D+00         -0.483606         -1.113544
 Vib (Bot)   13  0.306593D+00         -0.513437         -1.182233
 Vib (V=0)       0.810415D+04          3.908708          9.000132
 Vib (V=0)    1  0.187001D+02          1.271844          2.928528
 Vib (V=0)    2  0.568682D+01          0.754870          1.738152
 Vib (V=0)    3  0.327770D+01          0.515569          1.187141
 Vib (V=0)    4  0.208681D+01          0.319484          0.735638
 Vib (V=0)    5  0.190963D+01          0.280950          0.646912
 Vib (V=0)    6  0.159957D+01          0.204004          0.469736
 Vib (V=0)    7  0.135163D+01          0.130858          0.301312
 Vib (V=0)    8  0.129927D+01          0.113698          0.261800
 Vib (V=0)    9  0.120904D+01          0.082439          0.189823
 Vib (V=0)   10  0.117480D+01          0.069965          0.161101
 Vib (V=0)   11  0.110961D+01          0.045172          0.104013
 Vib (V=0)   12  0.109820D+01          0.040681          0.093671
 Vib (V=0)   13  0.108651D+01          0.036036          0.082975
 Electronic      0.100000D+01          0.000000          0.000000
 Translational   0.270440D+09          8.432071         19.415561
 Rotational      0.270623D+07          6.432365         14.811068
 ***** Axes restored to original set *****
 -------------------------------------------------------------------
 Center     Atomic                   Forces (Hartrees/Bohr)
 Number     Number              X              Y              Z
 -------------------------------------------------------------------
      1        6          -0.000005127   -0.000008970   -0.000002013
      2        6           0.000006769    0.000001975    0.000000851
      3        1          -0.000001364    0.000001066    0.000000362
      4        1           0.000001114   -0.000000652   -0.000000371
      5        1           0.000001642    0.000000255    0.000000577
      6        1          -0.000000759    0.000000116   -0.000000515
      7       50          -0.000000973    0.000000806    0.000000478
      8       50          -0.000002908   -0.000001196   -0.000000367
      9        9           0.000000912    0.000004806    0.000000408
     10       35           0.000000694    0.000001795    0.000000589
 -------------------------------------------------------------------
 Cartesian Forces:  Max     0.000008970 RMS     0.000002646

 GradGradGradGradGradGradGradGradGradGradGradGradGradGradGradGradGradGrad
 Berny optimization.
 Internal  Forces:  Max     0.000005065 RMS     0.000001934
 Search for a local minimum.
 Step number   1 out of a maximum of    2
 All quantities printed in internal units (Hartrees-Bohrs-Radians)
 Second derivative matrix not updated -- analytic derivatives used.
     Eigenvalues ---    0.00067   0.00588   0.01051   0.01447   0.02748
     Eigenvalues ---    0.03406   0.04158   0.06066   0.06708   0.07053
     Eigenvalues ---    0.07956   0.09745   0.12423   0.12774   0.13824
     Eigenvalues ---    0.13975   0.14197   0.15445   0.17040   0.22877
     Eigenvalues ---    0.28148   0.39153   0.41344   0.721411000.00000
     Eigenvalues --- 1000.000001000.000001000.000001000.000001000.00000
     Eigenvalues --- 1000.000001000.000001000.00000
 Angle between quadratic step and forces=  65.28 degrees.
 Linear search not attempted -- first point.
 Iteration  1 RMS(Cart)=  0.00010487 RMS(Int)=  0.00000000
 Iteration  2 RMS(Cart)=  0.00000001 RMS(Int)=  0.00000000
 Variable       Old X    -DE/DX   Delta X   Delta X   Delta X     New X
                                 (Linear)    (Quad)   (Total)
    R1        2.49445   0.00000   0.00000   0.00000   0.00000   2.49445
    R2        2.60349   0.00000   0.00000  -0.00002  -0.00002   2.60347
    R3        3.64201   0.00000   0.00000   0.00001   0.00001   3.64202
    R4        2.04102   0.00000   0.00000   0.00000   0.00000   2.04103
    R5        4.04207   0.00000   0.00000  -0.00001  -0.00001   4.04207
    R6        3.24428   0.00000   0.00000   0.00001   0.00001   3.24429
    R7        3.25749   0.00000   0.00000   0.00001   0.00001   3.25750
    R8        3.25853   0.00000   0.00000   0.00000   0.00000   3.25853
    R9        5.27108   0.00000   0.00000   0.00005   0.00005   5.27113
    A1        2.13025   0.00000   0.00000   0.00002   0.00002   2.13027
    A2        2.24163   0.00000   0.00000  -0.00002  -0.00002   2.24160
    A3        1.91126   0.00000   0.00000   0.00001   0.00001   1.91127
    A4        1.99037   0.00000   0.00000   0.00000   0.00000   1.99037
    A5        2.26923   0.00000   0.00000   0.00005   0.00005   2.26928
    A6        2.02253   0.00000   0.00000  -0.00005  -0.00005   2.02248
    A7        1.80289   0.00000   0.00000  -0.00001  -0.00001   1.80288
    A8        1.97350   0.00000   0.00000   0.00002   0.00002   1.97352
    A9        2.03862   0.00000   0.00000   0.00002   0.00002   2.03864
   A10        1.77778   0.00000   0.00000   0.00000   0.00000   1.77778
   A11        1.91633  -0.00001   0.00000  -0.00011  -0.00011   1.91622
   A12        1.93657   0.00000   0.00000   0.00003   0.00003   1.93660
    D1        0.01074   0.00000   0.00000   0.00000   0.00000   0.01074
    D2        3.10025   0.00000   0.00000   0.00004   0.00004   3.10028
    D3       -3.11918   0.00000   0.00000   0.00001   0.00001  -3.11917
    D4       -0.02967   0.00000   0.00000   0.00005   0.00005  -0.02962
    D5        0.54145   0.00000   0.00000  -0.00016  -0.00016   0.54129
    D6        2.76119   0.00000   0.00000  -0.00013  -0.00013   2.76106
    D7       -2.65301   0.00000   0.00000  -0.00013  -0.00013  -2.65314
    D8       -0.43327   0.00000   0.00000  -0.00009  -0.00009  -0.43337
    D9        3.01540   0.00000   0.00000   0.00000   0.00000   3.01541
   D10        1.06370   0.00000   0.00000   0.00004   0.00004   1.06374
   D11       -1.17876   0.00000   0.00000   0.00002   0.00002  -1.17874
   D12       -3.13047   0.00000   0.00000   0.00006   0.00006  -3.13040
         Item               Value     Threshold  Converged?
 Maximum Force            0.000005     0.000450     YES
 RMS     Force            0.000002     0.000300     YES
 Maximum Displacement     0.000287     0.001800     YES
 RMS     Displacement     0.000105     0.001200     YES
 Predicted change in Energy=-7.431156D-10
 Optimization completed.
    -- Stationary point found.
                           ----------------------------
                           !   Optimized Parameters   !
                           ! (Angstroms and Degrees)  !
 --------------------------                            --------------------------
 ! Name  Definition              Value          Derivative Info.                !
 --------------------------------------------------------------------------------
 ! R1    R(1,2)                  1.32           -DE/DX =    0.0                 !
 ! R2    R(1,9)                  1.3777         -DE/DX =    0.0                 !
 ! R3    R(1,10)                 1.9273         -DE/DX =    0.0                 !
 ! R4    R(2,3)                  1.0801         -DE/DX =    0.0                 !
 ! R5    R(2,7)                  2.139          -DE/DX =    0.0                 !
 ! R6    R(4,7)                  1.7168         -DE/DX =    0.0                 !
 ! R7    R(5,8)                  1.7238         -DE/DX =    0.0                 !
 ! R8    R(6,8)                  1.7243         -DE/DX =    0.0                 !
 ! R9    R(7,8)                  2.7893         -DE/DX =    0.0                 !
 ! A1    A(2,1,9)              122.0543         -DE/DX =    0.0                 !
 ! A2    A(2,1,10)             128.4359         -DE/DX =    0.0                 !
 ! A3    A(9,1,10)             109.507          -DE/DX =    0.0                 !
 ! A4    A(1,2,3)              114.0398         -DE/DX =    0.0                 !
 ! A5    A(1,2,7)              130.0173         -DE/DX =    0.0                 !
 ! A6    A(3,2,7)              115.8825         -DE/DX =    0.0                 !
 ! A7    A(2,7,4)              103.2981         -DE/DX =    0.0                 !
 ! A8    A(2,7,8)              113.0734         -DE/DX =    0.0                 !
 ! A9    A(4,7,8)              116.8044         -DE/DX =    0.0                 !
 ! A10   A(5,8,6)              101.8593         -DE/DX =    0.0                 !
 ! A11   A(5,8,7)              109.7978         -DE/DX =    0.0                 !
 ! A12   A(6,8,7)              110.9571         -DE/DX =    0.0                 !
 ! D1    D(9,1,2,3)              0.6153         -DE/DX =    0.0                 !
 ! D2    D(9,1,2,7)            177.631          -DE/DX =    0.0                 !
 ! D3    D(10,1,2,3)          -178.7156         -DE/DX =    0.0                 !
 ! D4    D(10,1,2,7)            -1.6999         -DE/DX =    0.0                 !
 ! D5    D(1,2,7,4)             31.0228         -DE/DX =    0.0                 !
 ! D6    D(1,2,7,8)            158.2046         -DE/DX =    0.0                 !
 ! D7    D(3,2,7,4)           -152.0065         -DE/DX =    0.0                 !
 ! D8    D(3,2,7,8)            -24.8248         -DE/DX =    0.0                 !
 ! D9    D(2,7,8,5)            172.7699         -DE/DX =    0.0                 !
 ! D10   D(2,7,8,6)             60.9454         -DE/DX =    0.0                 !
 ! D11   D(4,7,8,5)            -67.538          -DE/DX =    0.0                 !
 ! D12   D(4,7,8,6)           -179.3625         -DE/DX =    0.0                 !
 --------------------------------------------------------------------------------
 GradGradGradGradGradGradGradGradGradGradGradGradGradGradGradGradGradGrad

 1\1\GINC-MALLOS73\Freq\RHF\LANL2DZ\C2H4Br1F1Sn2\MARLIN\24-Oct-2024\0\\
 #N Geom=AllCheck Guess=TCheck SCRF=Check GenChk RHF/LANL2DZ Freq\\Titl
 e Card Required\\0,1\C,1.1138517672,-2.3202606217,-0.0571109305\C,0.08
 33410251,-1.5064071113,0.0774431566\H,-0.875576168,-2.0027524121,0.051
 8903185\H,1.4530231427,1.1654474245,-0.3665295606\H,-2.4054603056,3.43
 05388413,0.1449696258\H,-3.6968226202,1.1195935842,0.542995869\Sn,0.03
 32806705,0.6045209814,0.4190272148\Sn,-2.3770550659,1.7793826704,-0.34
 93260004\F,0.9557378674,-3.6782271855,-0.2274220366\Br,2.9920236869,-1
 .8884351712,-0.0379376567\\Version=EM64L-G09RevA.01\State=1-A\HF=-196.
 7819749\RMSD=1.435e-09\RMSF=2.646e-06\ZeroPoint=0.0456447\Thermal=0.05
 54508\Dipole=-0.3828236,0.8215772,0.0926153\DipoleDeriv=1.8077766,-0.3
 952923,0.0500778,-0.1946235,1.5978292,0.0386861,-0.0720851,0.2113233,0
 .0845971,-0.9696735,0.5569817,0.0849757,0.402664,-0.8900754,0.0163699,
 0.5002416,-0.3875825,-0.2458641,-0.0427201,-0.0852608,-0.0185194,0.051
 2804,-0.037047,0.0242257,0.0175043,-0.045592,0.1951847,-0.2608082,-0.1
 083833,0.1075469,0.0764209,-0.2988423,-0.0318266,0.4573815,-0.1346033,
 -0.032229,-0.1557974,0.0384003,0.1035827,0.0963478,-0.4575871,-0.01101
 92,0.3633839,-0.2989908,-0.0449641,-0.3332327,-0.0701422,0.1376689,-0.
 0161988,-0.2267175,-0.0358598,0.5021081,-0.1358646,-0.0704453,0.614135
 8,-0.0426032,-0.202414,-0.6883743,1.3751768,0.0018392,-0.8965436,0.499
 4359,0.1947186,0.420759,0.0734916,-0.2546233,-0.0331868,0.6103608,0.05
 95845,-0.8679335,0.4420625,0.0891694,-0.5815784,-0.0477065,-0.0111868,
 0.3805469,-1.6058986,-0.0387788,-0.0110737,-0.1215047,-0.1704696,-0.49
 88611,0.0805146,0.0028914,-0.0748766,-0.0671989,-0.023221,0.0070165,-0
 .0286839,0.0003024\Polar=196.8681163,-55.7997847,123.2481629,37.365738
 6,-20.5364955,67.9036216\HyperPolar=-93.8865878,62.9074884,-76.8255867
 ,212.3511771,49.7712546,1.4595917,-8.8685884,15.7424384,23.2087841,2.9
 152824\PG=C01 [X(C2H4Br1F1Sn2)]\NImag=0\\0.65925124,-0.23022933,0.6273
 9400,-0.04409948,0.07256173,0.12494302,-0.42670837,0.28283383,0.045425
 85,0.78043585,0.22728343,-0.28433658,-0.03353106,-0.14115494,0.5839788
 5,0.03854913,-0.03522932,-0.06820186,-0.04529086,0.06781592,0.11029067
 ,-0.02976030,-0.01883722,-0.00081920,-0.30184967,-0.11747848,-0.004141
 25,0.32553983,0.02770098,0.00602666,-0.00165108,-0.14922739,-0.1206256
 4,-0.00650941,0.13128318,0.12118279,0.00381185,0.00073975,0.01237910,-
 0.00705830,-0.00700261,-0.04246005,0.00508344,0.00715185,0.02920596,-0
 .00292183,-0.00022657,-0.00001079,0.00212856,-0.00087768,-0.00001361,0
 .00028395,0.00002211,0.00038202,0.10143007,-0.00167251,0.00282631,0.00
 049161,-0.01104715,-0.00381093,0.00626893,0.00107305,-0.00333504,-0.00
 056323,0.03417933,0.02932370,-0.00131737,0.00145856,0.00006056,-0.0004
 4893,-0.00276203,0.00101269,-0.00004067,-0.00089942,0.00016025,-0.0509
 8637,-0.01851836,0.03289131,0.00031699,0.00055239,-0.00008074,-0.00244
 827,0.00020960,-0.00205112,0.00018062,-0.00026876,0.00010407,-0.000720
 34,-0.00001562,-0.00142515,0.01238775,-0.00061819,0.00039810,0.0001843
 3,0.00102000,-0.00018093,0.00075434,-0.00007969,0.00018600,-0.00010066
 ,0.00050141,0.00004009,0.00029960,-0.00082827,0.12889032,-0.00043709,0
 .00175431,0.00048631,-0.00159964,-0.00022674,0.00058665,0.00024874,-0.
 00016142,-0.00020719,-0.00111725,0.00026214,-0.00152342,-0.00365809,0.
 03359545,0.01696675,-0.00002116,-0.00010533,-0.00007971,-0.00065342,0.
 00025621,-0.00148241,0.00003814,-0.00004791,0.00010330,-0.00148930,0.0
 0086203,-0.00177088,0.00082484,-0.00045015,0.00082521,0.08516146,0.000
 11560,0.00008138,0.00005605,-0.00025091,0.00019581,0.00064327,-0.00007
 248,0.00015265,0.00003462,0.00084510,-0.00026273,0.00138398,-0.0094172
 4,-0.00467307,0.00638441,0.03776353,0.03305183,-0.00108949,0.00136846,
 0.00022518,-0.00007613,-0.00061669,-0.00205992,0.00013122,-0.00047396,
 -0.00003150,-0.00182610,0.00122876,0.00032898,-0.00250191,-0.00245796,
 0.00086118,-0.05168542,-0.02408609,0.03960095,0.00667775,0.01471289,0.
 00250140,-0.03328362,0.00342586,0.00900112,0.00259783,-0.01281191,-0.0
 0241960,-0.10221993,-0.02394519,0.05923396,0.00430779,-0.00353614,-0.0
 0214796,0.00122366,-0.00024031,-0.00421339,0.17799545,0.00304567,-0.01
 869222,-0.00401952,0.00723406,-0.12037199,-0.02443709,0.00407132,-0.00
 413269,-0.00034299,-0.03220281,-0.02439335,0.01921036,0.00299571,-0.00
 049999,0.00365503,-0.00345114,0.00138301,0.00169222,-0.00053395,0.1774
 3762,0.00285964,-0.00526136,-0.00019831,0.00084394,-0.01184518,-0.0231
 6206,0.00059468,0.00100923,0.00281428,0.04599074,0.01486270,-0.0355197
 3,0.00640182,-0.00351290,0.00082262,0.00780949,-0.00401788,0.00187114,
 -0.05307455,0.00004219,0.06171137,-0.00102242,-0.00204845,-0.00063394,
 0.00580419,-0.00159696,-0.00077303,-0.00044919,0.00047846,0.00005463,0
 .00284094,-0.00082517,-0.00299415,-0.01450228,0.00367014,0.00809612,-0
 .08499383,-0.02880028,0.06114865,-0.05141925,0.02143894,-0.01000983,0.
 14248713,-0.00086063,-0.00056198,0.00028753,0.00384026,-0.00105267,0.0
 0233043,0.00013247,-0.00015194,-0.00013127,-0.00355683,0.00184374,0.00
 056965,0.00642583,-0.12363231,-0.04463440,-0.03525348,-0.02994188,0.02
 446857,0.02028470,-0.01806677,0.00517959,0.00886858,0.17166653,0.00140
 814,-0.00422449,-0.00078739,0.00495934,-0.00038746,0.00297913,-0.00068
 202,0.00105795,0.00024868,0.00766832,-0.00321882,0.00261580,0.00287106
 ,-0.02858272,-0.01777514,0.04606950,0.01970111,-0.04085074,-0.00806045
 ,0.00214643,-0.01290350,-0.05494029,0.01233962,0.06650749,-0.06486641,
 -0.03516413,-0.00366813,0.00545152,0.04043837,0.00590335,0.00442182,-0
 .00017767,-0.00045712,0.00053371,0.00047096,0.00002949,-0.00019031,0.0
 0012725,-0.00021085,-0.00001819,-0.00000340,0.00002956,-0.00215941,0.0
 0009707,-0.00035105,0.00079951,0.00006522,0.00049412,0.07643332,-0.006
 12391,-0.30791071,-0.03457695,-0.00457743,-0.05970544,-0.01193162,-0.0
 0163852,0.00115800,0.00104251,-0.00089027,-0.00115065,-0.00094280,0.00
 026824,-0.00049709,-0.00073579,0.00026154,0.00009024,-0.00129464,0.002
 27584,0.00927740,0.00336212,-0.00092801,-0.00042600,0.00180472,0.02758
 938,0.37947274,-0.00025009,-0.03378018,-0.04496821,0.00141921,-0.01185
 816,0.01838573,-0.00086858,0.00154408,-0.00970940,-0.00012551,-0.00105
 707,-0.00032189,0.00039363,-0.00019999,-0.00018161,0.00025633,-0.00011
 779,0.00013602,-0.00083782,0.00214427,0.00571512,0.00002393,-0.0004169
 9,-0.00023542,0.00217861,0.04617358,0.02647123,-0.14094548,-0.01148808
 ,0.00146474,-0.02887678,-0.01050540,0.00029867,-0.00100303,0.00304891,
 0.00039571,0.00013417,0.00092027,-0.00027993,-0.00015679,0.00019364,0.
 00000081,-0.00007221,0.00006039,0.00008302,-0.00372027,-0.00269488,-0.
 00106488,0.00045521,0.00005388,0.00021228,-0.02040555,-0.01623686,-0.0
 0218971,0.19459074,-0.01864112,-0.02522496,0.00019735,0.01132968,0.005
 90952,0.00029454,0.00154637,-0.00046080,-0.00082795,0.00220619,-0.0010
 8113,0.00020047,0.00007811,-0.00003111,0.00010702,0.00016471,-0.000077
 24,0.00017133,0.00036822,-0.00194102,0.00018150,-0.00025726,0.00032327
 ,-0.00063634,-0.03344304,-0.02030849,-0.00243175,0.03664813,0.04289194
 ,0.00056476,0.00061255,-0.02393840,0.00182552,0.00041402,0.00262902,0.
 00049363,-0.00106781,0.00759987,0.00003855,0.00024335,0.00029545,-0.00
 005357,0.00002051,-0.00003615,-0.00004539,0.00001833,-0.00008129,0.000
 01728,-0.00009089,-0.00115094,0.00002790,0.00000727,0.00020110,-0.0039
 4798,-0.00290113,0.00470842,0.00107931,0.00274382,0.00977291\\0.000005
 13,0.00000897,0.00000201,-0.00000677,-0.00000197,-0.00000085,0.0000013
 6,-0.00000107,-0.00000036,-0.00000111,0.00000065,0.00000037,-0.0000016
 4,-0.00000025,-0.00000058,0.00000076,-0.00000012,0.00000052,0.00000097
 ,-0.00000081,-0.00000048,0.00000291,0.00000120,0.00000037,-0.00000091,
 -0.00000481,-0.00000041,-0.00000069,-0.00000179,-0.00000059\\\@


 GETTING A SIMPLE ANSWER FROM A PROFESSOR IS LIKE
 GETTING A THIMBLE OF WATER FROM A FIRE HYDRANT.
     -- PROF. LEN SHAPIRO, NDSU
 Job cpu time:  0 days  0 hours  0 minutes 50.4 seconds.
 File lengths (MBytes):  RWF=      9 Int=      0 D2E=      0 Chk=      1 Scr=      1
 Normal termination of Gaussian 09 at Thu Oct 24 09:49:35 2024.
