 Entering Gaussian System, Link 0=g09
 Initial command:
 /u/local/G09/g09/l1.exe /tmp1/marlin/22685.mallos00.local/Gau-87968.inp -scrdir=/tmp1/marlin/22685.mallos00.local/
 Entering Link 1 = /u/local/G09/g09/l1.exe PID=     87970.
  
 Copyright (c) 1988,1990,1992,1993,1995,1998,2003,2009, Gaussian, Inc.
                  All Rights Reserved.
  
 This is part of the Gaussian(R) 09 program.  It is based on
 the Gaussian(R) 03 system (copyright 2003, Gaussian, Inc.),
 the Gaussian(R) 98 system (copyright 1998, Gaussian, Inc.),
 the Gaussian(R) 94 system (copyright 1995, Gaussian, Inc.),
 the Gaussian 92(TM) system (copyright 1992, Gaussian, Inc.),
 the Gaussian 90(TM) system (copyright 1990, Gaussian, Inc.),
 the Gaussian 88(TM) system (copyright 1988, Gaussian, Inc.),
 the Gaussian 86(TM) system (copyright 1986, Carnegie Mellon
 University), and the Gaussian 82(TM) system (copyright 1983,
 Carnegie Mellon University). Gaussian is a federally registered
 trademark of Gaussian, Inc.
  
 This software contains proprietary and confidential information,
 including trade secrets, belonging to Gaussian, Inc.
  
 This software is provided under written license and may be
 used, copied, transmitted, or stored only in accord with that
 written license.
  
 The following legend is applicable only to US Government
 contracts under FAR:
  
                    RESTRICTED RIGHTS LEGEND
  
 Use, reproduction and disclosure by the US Government is
 subject to restrictions as set forth in subparagraphs (a)
 and (c) of the Commercial Computer Software - Restricted
 Rights clause in FAR 52.227-19.
  
 Gaussian, Inc.
 340 Quinnipiac St., Bldg. 40, Wallingford CT 06492
  
  
 ---------------------------------------------------------------
 Warning -- This program may not be used in any manner that
 competes with the business of Gaussian, Inc. or will provide
 assistance to any competitor of Gaussian, Inc.  The licensee
 of this program is prohibited from giving any competitor of
 Gaussian, Inc. access to this program.  By using this program,
 the user acknowledges that Gaussian, Inc. is engaged in the
 business of creating and licensing software in the field of
 computational chemistry and represents and warrants to the
 licensee that it is not a competitor of Gaussian, Inc. and that
 it will not use this program in any manner prohibited above.
 ---------------------------------------------------------------
  

 Cite this work as:
 Gaussian 09, Revision A.01,
 M. J. Frisch, G. W. Trucks, H. B. Schlegel, G. E. Scuseria, 
 M. A. Robb, J. R. Cheeseman, G. Scalmani, V. Barone, B. Mennucci, 
 G. A. Petersson, H. Nakatsuji, M. Caricato, X. Li, H. P. Hratchian, 
 A. F. Izmaylov, J. Bloino, G. Zheng, J. L. Sonnenberg, M. Hada, 
 M. Ehara, K. Toyota, R. Fukuda, J. Hasegawa, M. Ishida, T. Nakajima, 
 Y. Honda, O. Kitao, H. Nakai, T. Vreven, J. A. Montgomery, Jr., 
 J. E. Peralta, F. Ogliaro, M. Bearpark, J. J. Heyd, E. Brothers, 
 K. N. Kudin, V. N. Staroverov, R. Kobayashi, J. Normand, 
 K. Raghavachari, A. Rendell, J. C. Burant, S. S. Iyengar, J. Tomasi, 
 M. Cossi, N. Rega, J. M. Millam, M. Klene, J. E. Knox, J. B. Cross, 
 V. Bakken, C. Adamo, J. Jaramillo, R. Gomperts, R. E. Stratmann, 
 O. Yazyev, A. J. Austin, R. Cammi, C. Pomelli, J. W. Ochterski, 
 R. L. Martin, K. Morokuma, V. G. Zakrzewski, G. A. Voth, 
 P. Salvador, J. J. Dannenberg, S. Dapprich, A. D. Daniels, 
 O. Farkas, J. B. Foresman, J. V. Ortiz, J. Cioslowski, 
 and D. J. Fox, Gaussian, Inc., Wallingford CT, 2009.
 
 ******************************************
 Gaussian 09:  EM64L-G09RevA.01  8-May-2009
                24-Oct-2024 
 ******************************************
 %mem=103GB
 %nproc=20
 Will use up to   20 processors via shared memory.
 %chk=1-mp2.chk
 --------------------------------------------
 # opt freq=noraman mp2/lanl2dz geom=allcheck
 --------------------------------------------
 1/18=20,19=15,29=7,38=1/1,3;
 2/9=110,12=2,40=1/2;
 3/5=6,6=3,11=9,14=-4,16=1,25=1,30=1,71=1/1,2,3;
 4//1;
 5/5=2,38=5/2;
 8/6=4,10=1/1;
 9/15=2,16=-3/6;
 10/5=1/2;
 6/7=2,8=2,9=2,10=2/1;
 7/12=2/1,2,3,16;
 1/18=20,19=15/3(2);
 2/9=110/2;
 99//99;
 2/9=110/2;
 3/5=6,6=3,11=9,14=-2,16=1,25=1,30=1,71=1/1,2,3;
 4/5=5,16=3/1;
 5/5=2,38=5/2;
 8/6=4,10=1/1;
 9/15=2,16=-3/6;
 10/5=1/2;
 7/12=2/1,2,3,16;
 1/18=20,19=15/3(-8);
 2/9=110/2;
 6/7=2,8=2,9=2,10=2/1;
 99//99;
 -------------------
 Title Card Required
 -------------------
 Redundant internal coordinates taken from checkpoint file:
 1-mp2.chk
 Charge =  0 Multiplicity = 1
 C,0,1.1138517672,-2.3202606217,-0.0571109305
 C,0,0.0833410251,-1.5064071113,0.0774431566
 H,0,-0.875576168,-2.0027524121,0.0518903185
 H,0,1.4530231427,1.1654474245,-0.3665295606
 H,0,-2.4054603056,3.4305388413,0.1449696258
 H,0,-3.6968226202,1.1195935842,0.542995869
 Sn,0,0.0332806705,0.6045209814,0.4190272148
 Sn,0,-2.3770550659,1.7793826704,-0.3493260004
 F,0,0.9557378674,-3.6782271855,-0.2274220366
 Br,0,2.9920236869,-1.8884351712,-0.0379376567
 Recover connectivity data from disk.

 GradGradGradGradGradGradGradGradGradGradGradGradGradGradGradGradGradGrad
 Berny optimization.
 Initialization pass.
                           ----------------------------
                           !    Initial Parameters    !
                           ! (Angstroms and Degrees)  !
 --------------------------                            --------------------------
 ! Name  Definition              Value          Derivative Info.                !
 --------------------------------------------------------------------------------
 ! R1    R(1,2)                  1.32           estimate D2E/DX2                !
 ! R2    R(1,9)                  1.3777         estimate D2E/DX2                !
 ! R3    R(1,10)                 1.9273         estimate D2E/DX2                !
 ! R4    R(2,3)                  1.0801         estimate D2E/DX2                !
 ! R5    R(2,7)                  2.139          estimate D2E/DX2                !
 ! R6    R(4,7)                  1.7168         estimate D2E/DX2                !
 ! R7    R(5,8)                  1.7238         estimate D2E/DX2                !
 ! R8    R(6,8)                  1.7243         estimate D2E/DX2                !
 ! R9    R(7,8)                  2.7893         estimate D2E/DX2                !
 ! A1    A(2,1,9)              122.0543         estimate D2E/DX2                !
 ! A2    A(2,1,10)             128.4359         estimate D2E/DX2                !
 ! A3    A(9,1,10)             109.507          estimate D2E/DX2                !
 ! A4    A(1,2,3)              114.0398         estimate D2E/DX2                !
 ! A5    A(1,2,7)              130.0173         estimate D2E/DX2                !
 ! A6    A(3,2,7)              115.8825         estimate D2E/DX2                !
 ! A7    A(2,7,4)              103.2981         estimate D2E/DX2                !
 ! A8    A(2,7,8)              113.0734         estimate D2E/DX2                !
 ! A9    A(4,7,8)              116.8044         estimate D2E/DX2                !
 ! A10   A(5,8,6)              101.8593         estimate D2E/DX2                !
 ! A11   A(5,8,7)              109.7978         estimate D2E/DX2                !
 ! A12   A(6,8,7)              110.9571         estimate D2E/DX2                !
 ! D1    D(9,1,2,3)              0.6153         estimate D2E/DX2                !
 ! D2    D(9,1,2,7)            177.631          estimate D2E/DX2                !
 ! D3    D(10,1,2,3)          -178.7156         estimate D2E/DX2                !
 ! D4    D(10,1,2,7)            -1.6999         estimate D2E/DX2                !
 ! D5    D(1,2,7,4)             31.0228         estimate D2E/DX2                !
 ! D6    D(1,2,7,8)            158.2046         estimate D2E/DX2                !
 ! D7    D(3,2,7,4)           -152.0065         estimate D2E/DX2                !
 ! D8    D(3,2,7,8)            -24.8248         estimate D2E/DX2                !
 ! D9    D(2,7,8,5)            172.7699         estimate D2E/DX2                !
 ! D10   D(2,7,8,6)             60.9454         estimate D2E/DX2                !
 ! D11   D(4,7,8,5)            -67.538          estimate D2E/DX2                !
 ! D12   D(4,7,8,6)           -179.3625         estimate D2E/DX2                !
 --------------------------------------------------------------------------------
 Trust Radius=3.00D-01 FncErr=1.00D-07 GrdErr=1.00D-07
 Number of steps in this run=  43 maximum allowed number of steps= 100.
 GradGradGradGradGradGradGradGradGradGradGradGradGradGradGradGradGradGrad

                          Input orientation:                          
 ---------------------------------------------------------------------
 Center     Atomic      Atomic             Coordinates (Angstroms)
 Number     Number       Type             X           Y           Z
 ---------------------------------------------------------------------
      1          6           0        1.113852   -2.320261   -0.057111
      2          6           0        0.083341   -1.506407    0.077443
      3          1           0       -0.875576   -2.002752    0.051890
      4          1           0        1.453023    1.165447   -0.366530
      5          1           0       -2.405460    3.430539    0.144970
      6          1           0       -3.696823    1.119594    0.542996
      7         50           0        0.033281    0.604521    0.419027
      8         50           0       -2.377055    1.779383   -0.349326
      9          9           0        0.955738   -3.678227   -0.227422
     10         35           0        2.992024   -1.888435   -0.037938
 ---------------------------------------------------------------------
                    Distance matrix (angstroms):
                    1          2          3          4          5
     1  C    0.000000
     2  C    1.320006   0.000000
     3  H    2.017552   1.080062   0.000000
     4  H    3.515813   3.035119   3.954104   0.000000
     5  H    6.745227   5.529207   5.645340   4.503350   0.000000
     6  H    5.944351   4.626257   4.236704   5.229747   2.677034
     7  Sn   3.154154   2.138972   2.785442   1.716801   3.742852
     8  Sn   5.392485   4.126996   4.089005   3.879009   1.723790
     9  F    1.377708   2.360259   2.497787   4.871122   7.872159
    10  Br   1.927270   2.935931   3.870332   3.435505   7.580091
                    6          7          8          9         10
     6  H    0.000000
     7  Sn   3.767537   0.000000
     8  Sn   1.724339   2.789334   0.000000
     9  F    6.727477   4.428403   6.395926   0.000000
    10  Br   7.357064   3.895871   6.509751   2.717668   0.000000
 Stoichiometry    C2H4BrFSn2
 Framework group  C1[X(C2H4BrFSn2)]
 Deg. of freedom    24
 Full point group                 C1      NOp   1
 Largest Abelian subgroup         C1      NOp   1
 Largest concise Abelian subgroup C1      NOp   1
                         Standard orientation:                         
 ---------------------------------------------------------------------
 Center     Atomic      Atomic             Coordinates (Angstroms)
 Number     Number       Type             X           Y           Z
 ---------------------------------------------------------------------
      1          6           0       -2.364529    1.041205    0.074496
      2          6           0       -1.056925    1.056624    0.254359
      3          1           0       -0.649502    2.040057    0.437118
      4          1           0       -0.350451   -1.725057   -0.733109
      5          1           0        4.037565   -1.082628    0.049684
      6          1           0        3.507202    1.388038    0.933447
      7         50           0        0.341299   -0.560660    0.321912
      8         50           0        2.958780    0.233687   -0.224160
      9          9           0       -3.120816    2.192288    0.107913
     10         35           0       -3.512363   -0.473981   -0.243402
 ---------------------------------------------------------------------
 Rotational constants (GHZ):      2.3572540      0.2160773      0.2019258
 Standard basis: LANL2DZ (5D, 7F)
 There are    59 symmetry adapted basis functions of A   symmetry.
 Integral buffers will be    131072 words long.
 Raffenetti 1 integral format.
 Two-electron integral symmetry is turned on.
    59 basis functions,   127 primitive gaussians,    59 cartesian basis functions
    20 alpha electrons       20 beta electrons
       nuclear repulsion energy       133.8023459208 Hartrees.
 NAtoms=   10 NActive=   10 NUniq=   10 SFac= 7.50D-01 NAtFMM=   80 NAOKFM=F Big=F
 One-electron integrals computed using PRISM.
   1 Symmetry operations used in ECPInt.
 ECPInt:  NShTT=     630 NPrTT=    3262 LenC2=     621 LenP2D=    2659.
 LDataN:  DoStor=T MaxTD1= 4 Len=   56
 NBasis=    59 RedAO= T  NBF=    59
 NBsUse=    59 1.00D-06 NBFU=    59
 Harris functional with IExCor=  205 diagonalized for initial guess.
 ExpMin= 6.30D-02 ExpMax= 1.00D+04 ExpMxC= 3.50D+02 IAcc=2 IRadAn=         0 AccDes= 0.00D+00
 HarFok:  IExCor=  205 AccDes= 0.00D+00 IRadAn=         0 IDoV= 1
 ScaDFX=  1.000000  1.000000  1.000000  1.000000
 Defaulting to unpruned grid for atomic number  50.
 Defaulting to unpruned grid for atomic number  50.
 Defaulting to unpruned grid for atomic number  50.
 Defaulting to unpruned grid for atomic number  50.
 Defaulting to unpruned grid for atomic number  50.
 Defaulting to unpruned grid for atomic number  50.
 Defaulting to unpruned grid for atomic number  50.
 Defaulting to unpruned grid for atomic number  50.
 Defaulting to unpruned grid for atomic number  50.
 Defaulting to unpruned grid for atomic number  50.
 Defaulting to unpruned grid for atomic number  50.
 Defaulting to unpruned grid for atomic number  50.
 Defaulting to unpruned grid for atomic number  50.
 Defaulting to unpruned grid for atomic number  50.
 Defaulting to unpruned grid for atomic number  50.
 Defaulting to unpruned grid for atomic number  50.
 Defaulting to unpruned grid for atomic number  50.
 Defaulting to unpruned grid for atomic number  50.
 Defaulting to unpruned grid for atomic number  50.
 Defaulting to unpruned grid for atomic number  50.
 FoFCou: FMM=F IPFlag=           0 FMFlag=      100000 FMFlg1=           0
         NFxFlg=           0 DoJE=T BraDBF=F KetDBF=T FulRan=T
         Omega=  0.000000  0.000000  1.000000  0.000000  0.000000 ICntrl=     500 IOpCl=  0
         NMat0=    1 NMatS0=    1 NMatT0=    0 NMatD0=    1 NMtDS0=    0 NMtDT0=    0
         I1Cent=           4 NGrid=           0.
 Petite list used in FoFCou.
 Initial guess orbital symmetries:
       Occupied  (A) (A) (A) (A) (A) (A) (A) (A) (A) (A) (A) (A)
                 (A) (A) (A) (A) (A) (A) (A) (A)
       Virtual   (A) (A) (A) (A) (A) (A) (A) (A) (A) (A) (A) (A)
                 (A) (A) (A) (A) (A) (A) (A) (A) (A) (A) (A) (A)
                 (A) (A) (A) (A) (A) (A) (A) (A) (A) (A) (A) (A)
                 (A) (A) (A)
 The electronic state of the initial guess is 1-A.
 Requested convergence on RMS density matrix=1.00D-08 within 128 cycles.
 Requested convergence on MAX density matrix=1.00D-06.
 Requested convergence on             energy=1.00D-06.
 No special actions if energy rises.
 Keep R1 ints in memory in canonical form, NReq=2397586.
 SCF Done:  E(RHF) =  -196.781974859     A.U. after   16 cycles
             Convg  =    0.5403D-08             -V/T =  2.0708
 ExpMin= 6.30D-02 ExpMax= 1.00D+04 ExpMxC= 3.50D+02 IAcc=3 IRadAn=         5 AccDes= 0.00D+00
 HarFok:  IExCor=  205 AccDes= 0.00D+00 IRadAn=         5 IDoV=-2
 ScaDFX=  1.000000  1.000000  1.000000  1.000000
 Defaulting to unpruned grid for atomic number  50.
 Defaulting to unpruned grid for atomic number  50.
 Defaulting to unpruned grid for atomic number  50.
 Defaulting to unpruned grid for atomic number  50.
 Defaulting to unpruned grid for atomic number  50.
 Defaulting to unpruned grid for atomic number  50.
 Defaulting to unpruned grid for atomic number  50.
 Defaulting to unpruned grid for atomic number  50.
 Defaulting to unpruned grid for atomic number  50.
 Defaulting to unpruned grid for atomic number  50.
 Defaulting to unpruned grid for atomic number  50.
 Defaulting to unpruned grid for atomic number  50.
 Defaulting to unpruned grid for atomic number  50.
 Defaulting to unpruned grid for atomic number  50.
 Defaulting to unpruned grid for atomic number  50.
 Defaulting to unpruned grid for atomic number  50.
 Defaulting to unpruned grid for atomic number  50.
 Defaulting to unpruned grid for atomic number  50.
 Defaulting to unpruned grid for atomic number  50.
 Defaulting to unpruned grid for atomic number  50.
 Range of M.O.s used for correlation:     4    59
 NBasis=    59 NAE=    20 NBE=    20 NFC=     3 NFV=     0
 NROrb=     56 NOA=    17 NOB=    17 NVA=    39 NVB=    39
 Fully direct method using O(ONN) memory.
 JobTyp=1 Pass  1:  I=   4 to  20 NPSUse= 20 ParTrn=T ParDer=T DoDerP=T.
 Spin components of T(2) and E(2):
     alpha-alpha T2 =       0.2123479942D-01 E2=     -0.4622335290D-01
     alpha-beta  T2 =       0.1615509525D+00 E2=     -0.3156930173D+00
     beta-beta   T2 =       0.2123479942D-01 E2=     -0.4622335290D-01
 ANorm=    0.1097278703D+01
 E2 =    -0.4081397231D+00 EUMP2 =    -0.19719011458179D+03
          IDoAtm=1111111111
          Differentiating once with respect to electric field.
                with respect to dipole field.
          Differentiating once with respect to nuclear coordinates.
          Keep R1 ints in memory in canonical form, NReq=2368185.
          There are     1 degrees of freedom in the 1st order CPHF.  IDoFFX=0.
 LinEq1:  Iter=  0 NonCon=     1 RMS=9.46D-03 Max=9.21D-02
 AX will form     1 AO Fock derivatives at one time.
 LinEq1:  Iter=  1 NonCon=     1 RMS=3.56D-03 Max=3.02D-02
 LinEq1:  Iter=  2 NonCon=     1 RMS=1.17D-03 Max=1.28D-02
 LinEq1:  Iter=  3 NonCon=     1 RMS=2.37D-04 Max=2.27D-03
 LinEq1:  Iter=  4 NonCon=     1 RMS=7.84D-05 Max=5.39D-04
 LinEq1:  Iter=  5 NonCon=     1 RMS=2.68D-05 Max=2.46D-04
 LinEq1:  Iter=  6 NonCon=     1 RMS=7.21D-06 Max=3.50D-05
 LinEq1:  Iter=  7 NonCon=     1 RMS=2.80D-06 Max=2.34D-05
 LinEq1:  Iter=  8 NonCon=     1 RMS=7.42D-07 Max=6.07D-06
 LinEq1:  Iter=  9 NonCon=     1 RMS=1.51D-07 Max=1.41D-06
 LinEq1:  Iter= 10 NonCon=     1 RMS=5.13D-08 Max=9.66D-07
 LinEq1:  Iter= 11 NonCon=     1 RMS=1.14D-08 Max=1.21D-07
 LinEq1:  Iter= 12 NonCon=     1 RMS=2.53D-09 Max=2.55D-08
 LinEq1:  Iter= 13 NonCon=     1 RMS=4.44D-10 Max=3.16D-09
 LinEq1:  Iter= 14 NonCon=     0 RMS=6.63D-11 Max=4.76D-10
 Linear equations converged to 1.000D-10 1.000D-09 after    14 iterations.
 End of Minotr Frequency-dependent properties file   721 does not exist.
 End of Minotr Frequency-dependent properties file   722 does not exist.

 **********************************************************************

            Population analysis using the SCF density.

 **********************************************************************

 Orbital symmetries:
       Occupied  (A) (A) (A) (A) (A) (A) (A) (A) (A) (A) (A) (A)
                 (A) (A) (A) (A) (A) (A) (A) (A)
       Virtual   (A) (A) (A) (A) (A) (A) (A) (A) (A) (A) (A) (A)
                 (A) (A) (A) (A) (A) (A) (A) (A) (A) (A) (A) (A)
                 (A) (A) (A) (A) (A) (A) (A) (A) (A) (A) (A) (A)
                 (A) (A) (A)
 The electronic state is 1-A.
 Alpha  occ. eigenvalues --  -26.32125 -11.40895 -11.26483  -1.63859  -1.11227
 Alpha  occ. eigenvalues --   -1.01413  -0.80541  -0.71356  -0.70474  -0.69970
 Alpha  occ. eigenvalues --   -0.66620  -0.61224  -0.53671  -0.48378  -0.46337
 Alpha  occ. eigenvalues --   -0.44330  -0.44258  -0.39969  -0.39191  -0.28301
 Alpha virt. eigenvalues --   -0.03389   0.08173   0.08839   0.12779   0.12913
 Alpha virt. eigenvalues --    0.15454   0.17808   0.21808   0.25450   0.31362
 Alpha virt. eigenvalues --    0.31746   0.33014   0.33669   0.35419   0.37719
 Alpha virt. eigenvalues --    0.41863   0.45929   0.47813   0.49278   0.59904
 Alpha virt. eigenvalues --    0.60588   0.63119   0.70624   0.72083   0.80052
 Alpha virt. eigenvalues --    0.84619   0.94016   1.16388   1.20350   1.23624
 Alpha virt. eigenvalues --    1.26237   1.26677   1.29783   1.34987   1.44422
 Alpha virt. eigenvalues --    2.35881  12.17937  13.42228  20.33312
          Condensed to atoms (all electrons):
              1          2          3          4          5          6
     1  C    5.107801   0.281607  -0.021196   0.002278   0.000000   0.000001
     2  C    0.281607   5.935533   0.369407  -0.032782   0.000065   0.000163
     3  H   -0.021196   0.369407   0.434919   0.000005   0.000000   0.000005
     4  H    0.002278  -0.032782   0.000005   0.852027   0.000019   0.000009
     5  H    0.000000   0.000065   0.000000   0.000019   0.867566  -0.012274
     6  H    0.000001   0.000163   0.000005   0.000009  -0.012274   0.870139
     7  Sn  -0.065414   0.191964  -0.014344   0.365292  -0.009119  -0.010726
     8  Sn  -0.000491  -0.021504  -0.000241  -0.010130   0.338002   0.338143
     9  F    0.163136  -0.030745  -0.004766  -0.000004   0.000000   0.000000
    10  Br   0.368316  -0.130697   0.002564  -0.001686   0.000000   0.000000
              7          8          9         10
     1  C   -0.065414  -0.000491   0.163136   0.368316
     2  C    0.191964  -0.021504  -0.030745  -0.130697
     3  H   -0.014344  -0.000241  -0.004766   0.002564
     4  H    0.365292  -0.010130  -0.000004  -0.001686
     5  H   -0.009119   0.338002   0.000000   0.000000
     6  H   -0.010726   0.338143   0.000000   0.000000
     7  Sn   2.660573   0.249332   0.002173  -0.002153
     8  Sn   0.249332   2.757202  -0.000019   0.000120
     9  F    0.002173  -0.000019   9.246555  -0.062702
    10  Br  -0.002153   0.000120  -0.062702   6.784462
 Mulliken atomic charges:
              1
     1  C    0.163962
     2  C   -0.563012
     3  H    0.233646
     4  H   -0.175028
     5  H   -0.184259
     6  H   -0.185460
     7  Sn   0.632421
     8  Sn   0.349585
     9  F   -0.313630
    10  Br   0.041776
 Sum of Mulliken atomic charges =   0.00000
 Mulliken charges with hydrogens summed into heavy atoms:
              1
     1  C    0.163962
     2  C   -0.329367
     7  Sn   0.457393
     8  Sn  -0.020134
     9  F   -0.313630
    10  Br   0.041776
 Sum of Mulliken charges with hydrogens summed into heavy atoms =   0.00000
 Electronic spatial extent (au):  <R**2>=           1416.8786
 Charge=              0.0000 electrons
 Dipole moment (field-independent basis, Debye):
    X=              2.0882    Y=             -0.9958    Z=              0.1043  Tot=              2.3158
 Quadrupole moment (field-independent basis, Debye-Ang):
   XX=            -76.4149   YY=            -70.2295   ZZ=            -69.3700
   XY=              7.3561   XZ=             -4.5048   YZ=             -1.1972
 Traceless Quadrupole moment (field-independent basis, Debye-Ang):
   XX=             -4.4101   YY=              1.7753   ZZ=              2.6348
   XY=              7.3561   XZ=             -4.5048   YZ=             -1.1972
 Octapole moment (field-independent basis, Debye-Ang**2):
  XXX=            116.8078  YYY=            -40.6304  ZZZ=             -2.3417  XYY=             38.2879
  XXY=            -25.2250  XXZ=            -19.0100  XZZ=             25.5461  YZZ=            -11.5028
  YYZ=              0.0304  XYZ=             -1.1778
 Hexadecapole moment (field-independent basis, Debye-Ang**3):
 XXXX=          -2882.6627 YYYY=           -460.5852 ZZZZ=           -166.1734 XXXY=            200.3763
 XXXZ=            -81.9489 YYYX=            109.1365 YYYZ=            -16.5389 ZZZX=            -20.4252
 ZZZY=            -14.0713 XXYY=           -596.3562 XXZZ=           -500.4492 YYZZ=           -102.0744
 XXYZ=            -15.9306 YYXZ=            -10.0251 ZZXY=             19.3981
 N-N= 1.338023459208D+02 E-N=-7.241279491457D+02  KE= 1.837717435835D+02
   1 Symmetry operations used in ECPInt.
 ECPInt:  NShTT=     630 NPrTT=    3262 LenC2=     621 LenP2D=    2659.
 LDataN:  DoStor=T MaxTD1= 5 Len=  102
 Calling FoFJK, ICntrl=      2127 FMM=F ISym2X=0 I1Cent= 0 IOpClX= 0 NMat=1 NMatS=1 NMatT=0.
 ***** Axes restored to original set *****
 -------------------------------------------------------------------
 Center     Atomic                   Forces (Hartrees/Bohr)
 Number     Number              X              Y              Z
 -------------------------------------------------------------------
      1        6           0.029801360    0.003473239   -0.000246825
      2        6          -0.025379467    0.032923163    0.004686417
      3        1          -0.013784000   -0.006093590    0.000180263
      4        1           0.003463211    0.002373921   -0.001854901
      5        1           0.000970798    0.003850668    0.000237003
      6        1          -0.002487966   -0.002667222    0.001296424
      7       50          -0.008326350    0.002749366    0.000281021
      8       50           0.007013083   -0.003715020    0.000048329
      9        9          -0.004962717   -0.036644568   -0.004842167
     10       35           0.013692048    0.003750043    0.000214436
 -------------------------------------------------------------------
 Cartesian Forces:  Max     0.036644568 RMS     0.012465603

 GradGradGradGradGradGradGradGradGradGradGradGradGradGradGradGradGradGrad
 Berny optimization.
 Internal  Forces:  Max     0.048717067 RMS     0.011423041
 Search for a local minimum.
 Step number   1 out of a maximum of   43
 All quantities printed in internal units (Hartrees-Bohrs-Radians)
 Mixed Optimization -- RFO/linear search
 Second derivative matrix not updated -- first step.
     Eigenvalues ---    0.00230   0.00230   0.01671   0.02923   0.03147
     Eigenvalues ---    0.03147   0.05414   0.07115   0.12159   0.12175
     Eigenvalues ---    0.12215   0.12376   0.12747   0.15992   0.16000
     Eigenvalues ---    0.16000   0.16981   0.22004   0.23222   0.25000
     Eigenvalues ---    0.25000   0.35987   0.49524   0.619301000.00000
     Eigenvalues --- 1000.000001000.000001000.000001000.000001000.00000
     Eigenvalues --- 1000.000001000.000001000.00000
 RFO step:  Lambda=-9.35418063D-03 EMin= 2.30000000D-03
 Linear search not attempted -- first point.
 Iteration  1 RMS(Cart)=  0.03880609 RMS(Int)=  0.00018937
 Iteration  2 RMS(Cart)=  0.00028182 RMS(Int)=  0.00001096
 Iteration  3 RMS(Cart)=  0.00000004 RMS(Int)=  0.00001096
 Variable       Old X    -DE/DX   Delta X   Delta X   Delta X     New X
                                 (Linear)    (Quad)   (Total)
    R1        2.49445   0.04872   0.00000   0.07749   0.07749   2.57194
    R2        2.60349   0.03729   0.00000   0.07390   0.07390   2.67739
    R3        3.64201   0.01419   0.00000   0.07918   0.07918   3.72119
    R4        2.04102   0.01503   0.00000   0.04072   0.04072   2.08174
    R5        4.04207   0.00254   0.00000   0.01859   0.01859   4.06067
    R6        3.24428   0.00449   0.00000   0.03372   0.03372   3.27800
    R7        3.25749   0.00374   0.00000   0.02853   0.02853   3.28602
    R8        3.25853   0.00360   0.00000   0.02746   0.02746   3.28599
    R9        5.27108  -0.00625   0.00000  -0.07765  -0.07765   5.19343
    A1        2.13025  -0.00046   0.00000  -0.00177  -0.00177   2.12848
    A2        2.24163  -0.00084   0.00000  -0.00324  -0.00324   2.23839
    A3        1.91126   0.00131   0.00000   0.00506   0.00506   1.91632
    A4        1.99037   0.00146   0.00000   0.00787   0.00787   1.99824
    A5        2.26923  -0.00089   0.00000  -0.00391  -0.00391   2.26532
    A6        2.02253  -0.00057   0.00000  -0.00408  -0.00408   2.01845
    A7        1.80289   0.00171   0.00000   0.01493   0.01493   1.81782
    A8        1.97350  -0.00073   0.00000  -0.00122  -0.00123   1.97228
    A9        2.03862  -0.00093   0.00000  -0.00491  -0.00493   2.03369
   A10        1.77778   0.00238   0.00000   0.02462   0.02459   1.80237
   A11        1.91633  -0.00080   0.00000   0.00020   0.00018   1.91652
   A12        1.93657  -0.00108   0.00000  -0.00160  -0.00162   1.93495
    D1        0.01074   0.00034   0.00000   0.00851   0.00851   0.01925
    D2        3.10025   0.00023   0.00000   0.00551   0.00550   3.10575
    D3       -3.11918   0.00005   0.00000   0.00134   0.00134  -3.11783
    D4       -0.02967  -0.00006   0.00000  -0.00166  -0.00166  -0.03133
    D5        0.54145   0.00007   0.00000  -0.01399  -0.01401   0.52744
    D6        2.76119  -0.00033   0.00000  -0.01023  -0.01022   2.75097
    D7       -2.65301   0.00001   0.00000  -0.01674  -0.01675  -2.66977
    D8       -0.43327  -0.00038   0.00000  -0.01298  -0.01296  -0.44624
    D9        3.01540   0.00038   0.00000   0.00394   0.00396   3.01936
   D10        1.06370  -0.00145   0.00000  -0.02484  -0.02484   1.03885
   D11       -1.17876   0.00139   0.00000   0.01948   0.01948  -1.15928
   D12       -3.13047  -0.00044   0.00000  -0.00930  -0.00933  -3.13979
         Item               Value     Threshold  Converged?
 Maximum Force            0.048717     0.000450     NO 
 RMS     Force            0.011423     0.000300     NO 
 Maximum Displacement     0.100495     0.001800     NO 
 RMS     Displacement     0.038895     0.001200     NO 
 Predicted change in Energy=-4.824118D-03
 GradGradGradGradGradGradGradGradGradGradGradGradGradGradGradGradGradGrad

                          Input orientation:                          
 ---------------------------------------------------------------------
 Center     Atomic      Atomic             Coordinates (Angstroms)
 Number     Number       Type             X           Y           Z
 ---------------------------------------------------------------------
      1          6           0        1.122806   -2.334819   -0.058029
      2          6           0        0.058561   -1.498728    0.085815
      3          1           0       -0.921776   -2.001046    0.073265
      4          1           0        1.446704    1.207585   -0.359359
      5          1           0       -2.385637    3.449437    0.141375
      6          1           0       -3.696145    1.089701    0.528083
      7         50           0        0.012167    0.623210    0.421411
      8         50           0       -2.360052    1.780088   -0.344782
      9          9           0        0.960840   -3.731407   -0.233153
     10         35           0        3.038877   -1.880620   -0.056625
 ---------------------------------------------------------------------
                    Distance matrix (angstroms):
                    1          2          3          4          5
     1  C    0.000000
     2  C    1.361014   0.000000
     3  H    2.075804   1.101609   0.000000
     4  H    3.569922   3.073963   4.011505   0.000000
     5  H    6.768055   5.519197   5.644050   4.468050   0.000000
     6  H    5.940805   4.581853   4.178121   5.220186   2.726780
     7  Sn   3.195828   2.148812   2.807165   1.734644   3.716914
     8  Sn   5.398610   4.097040   4.066986   3.849593   1.738888
     9  F    1.416812   2.429136   2.575322   4.964437   7.931185
    10  Br   1.969169   3.008058   3.964612   3.487646   7.607501
                    6          7          8          9         10
     6  H    0.000000
     7  Sn   3.739060   0.000000
     8  Sn   1.738870   2.748244   0.000000
     9  F    6.746115   4.504566   6.435632   0.000000
    10  Br   7.384119   3.957102   6.529338   2.788335   0.000000
 Stoichiometry    C2H4BrFSn2
 Framework group  C1[X(C2H4BrFSn2)]
 Deg. of freedom    24
 Full point group                 C1      NOp   1
 Largest Abelian subgroup         C1      NOp   1
 Largest concise Abelian subgroup C1      NOp   1
                         Standard orientation:                         
 ---------------------------------------------------------------------
 Center     Atomic      Atomic             Coordinates (Angstroms)
 Number     Number       Type             X           Y           Z
 ---------------------------------------------------------------------
      1          6           0       -2.377386    1.055526    0.074840
      2          6           0       -1.029209    1.076403    0.260155
      3          1           0       -0.609206    2.077755    0.445717
      4          1           0       -0.317744   -1.754321   -0.704246
      5          1           0        4.038611   -1.098640    0.041229
      6          1           0        3.494450    1.433363    0.894564
      7         50           0        0.374208   -0.549137    0.333890
      8         50           0        2.948498    0.227967   -0.233544
      9          9           0       -3.155830    2.239101    0.097927
     10         35           0       -3.539982   -0.501233   -0.245310
 ---------------------------------------------------------------------
 Rotational constants (GHZ):      2.2837486      0.2145690      0.2002824
 Standard basis: LANL2DZ (5D, 7F)
 There are    59 symmetry adapted basis functions of A   symmetry.
 Integral buffers will be    131072 words long.
 Raffenetti 1 integral format.
 Two-electron integral symmetry is turned on.
    59 basis functions,   127 primitive gaussians,    59 cartesian basis functions
    20 alpha electrons       20 beta electrons
       nuclear repulsion energy       131.2688934518 Hartrees.
 NAtoms=   10 NActive=   10 NUniq=   10 SFac= 7.50D-01 NAtFMM=   80 NAOKFM=F Big=F
 One-electron integrals computed using PRISM.
   1 Symmetry operations used in ECPInt.
 ECPInt:  NShTT=     630 NPrTT=    3262 LenC2=     621 LenP2D=    2650.
 LDataN:  DoStor=T MaxTD1= 4 Len=   56
 NBasis=    59 RedAO= T  NBF=    59
 NBsUse=    59 1.00D-06 NBFU=    59
 Initial guess read from the read-write file.
 B after Tr=     0.000000    0.000000    0.000000
         Rot=    1.000000    0.000000    0.000000    0.000000 Ang=   0.00 deg.
 Initial guess orbital symmetries:
       Occupied  (A) (A) (A) (A) (A) (A) (A) (A) (A) (A) (A) (A)
                 (A) (A) (A) (A) (A) (A) (A) (A)
       Virtual   (A) (A) (A) (A) (A) (A) (A) (A) (A) (A) (A) (A)
                 (A) (A) (A) (A) (A) (A) (A) (A) (A) (A) (A) (A)
                 (A) (A) (A) (A) (A) (A) (A) (A) (A) (A) (A) (A)
                 (A) (A) (A)
 Harris functional with IExCor=  205 diagonalized for initial guess.
 ExpMin= 6.30D-02 ExpMax= 1.00D+04 ExpMxC= 3.50D+02 IAcc=2 IRadAn=         0 AccDes= 0.00D+00
 HarFok:  IExCor=  205 AccDes= 0.00D+00 IRadAn=         0 IDoV= 1
 ScaDFX=  1.000000  1.000000  1.000000  1.000000
 Defaulting to unpruned grid for atomic number  50.
 Defaulting to unpruned grid for atomic number  50.
 Defaulting to unpruned grid for atomic number  50.
 Defaulting to unpruned grid for atomic number  50.
 Defaulting to unpruned grid for atomic number  50.
 Defaulting to unpruned grid for atomic number  50.
 Defaulting to unpruned grid for atomic number  50.
 Defaulting to unpruned grid for atomic number  50.
 Defaulting to unpruned grid for atomic number  50.
 Defaulting to unpruned grid for atomic number  50.
 Defaulting to unpruned grid for atomic number  50.
 Defaulting to unpruned grid for atomic number  50.
 Defaulting to unpruned grid for atomic number  50.
 Defaulting to unpruned grid for atomic number  50.
 Defaulting to unpruned grid for atomic number  50.
 Defaulting to unpruned grid for atomic number  50.
 Defaulting to unpruned grid for atomic number  50.
 Defaulting to unpruned grid for atomic number  50.
 Defaulting to unpruned grid for atomic number  50.
 Defaulting to unpruned grid for atomic number  50.
 FoFCou: FMM=F IPFlag=           0 FMFlag=      100000 FMFlg1=           0
         NFxFlg=           0 DoJE=T BraDBF=F KetDBF=T FulRan=T
         Omega=  0.000000  0.000000  1.000000  0.000000  0.000000 ICntrl=     500 IOpCl=  0
         NMat0=    1 NMatS0=    1 NMatT0=    0 NMatD0=    1 NMtDS0=    0 NMtDT0=    0
         I1Cent=           4 NGrid=           0.
 Petite list used in FoFCou.
 Requested convergence on RMS density matrix=1.00D-08 within 128 cycles.
 Requested convergence on MAX density matrix=1.00D-06.
 Requested convergence on             energy=1.00D-06.
 No special actions if energy rises.
 Keep R1 ints in memory in canonical form, NReq=2397586.
 SCF Done:  E(RHF) =  -196.777270881     A.U. after   13 cycles
             Convg  =    0.6612D-08             -V/T =  2.0726
 ExpMin= 6.30D-02 ExpMax= 1.00D+04 ExpMxC= 3.50D+02 IAcc=3 IRadAn=         5 AccDes= 0.00D+00
 HarFok:  IExCor=  205 AccDes= 0.00D+00 IRadAn=         5 IDoV=-2
 ScaDFX=  1.000000  1.000000  1.000000  1.000000
 Defaulting to unpruned grid for atomic number  50.
 Defaulting to unpruned grid for atomic number  50.
 Defaulting to unpruned grid for atomic number  50.
 Defaulting to unpruned grid for atomic number  50.
 Defaulting to unpruned grid for atomic number  50.
 Defaulting to unpruned grid for atomic number  50.
 Defaulting to unpruned grid for atomic number  50.
 Defaulting to unpruned grid for atomic number  50.
 Defaulting to unpruned grid for atomic number  50.
 Defaulting to unpruned grid for atomic number  50.
 Defaulting to unpruned grid for atomic number  50.
 Defaulting to unpruned grid for atomic number  50.
 Defaulting to unpruned grid for atomic number  50.
 Defaulting to unpruned grid for atomic number  50.
 Defaulting to unpruned grid for atomic number  50.
 Defaulting to unpruned grid for atomic number  50.
 Defaulting to unpruned grid for atomic number  50.
 Defaulting to unpruned grid for atomic number  50.
 Defaulting to unpruned grid for atomic number  50.
 Defaulting to unpruned grid for atomic number  50.
 Range of M.O.s used for correlation:     4    59
 NBasis=    59 NAE=    20 NBE=    20 NFC=     3 NFV=     0
 NROrb=     56 NOA=    17 NOB=    17 NVA=    39 NVB=    39
 Fully direct method using O(ONN) memory.
 JobTyp=1 Pass  1:  I=   4 to  20 NPSUse= 20 ParTrn=T ParDer=T DoDerP=T.
 Spin components of T(2) and E(2):
     alpha-alpha T2 =       0.2217452458D-01 E2=     -0.4732081805D-01
     alpha-beta  T2 =       0.1685975544D+00 E2=     -0.3228940834D+00
     beta-beta   T2 =       0.2217452458D-01 E2=     -0.4732081805D-01
 ANorm=    0.1101338551D+01
 E2 =    -0.4175357195D+00 EUMP2 =    -0.19719480660068D+03
          IDoAtm=1111111111
          Differentiating once with respect to electric field.
                with respect to dipole field.
          Differentiating once with respect to nuclear coordinates.
          Keep R1 ints in memory in canonical form, NReq=2368185.
          There are     1 degrees of freedom in the 1st order CPHF.  IDoFFX=0.
 LinEq1:  Iter=  0 NonCon=     1 RMS=9.65D-03 Max=9.04D-02
 AX will form     1 AO Fock derivatives at one time.
 LinEq1:  Iter=  1 NonCon=     1 RMS=3.80D-03 Max=3.11D-02
 LinEq1:  Iter=  2 NonCon=     1 RMS=1.21D-03 Max=1.33D-02
 LinEq1:  Iter=  3 NonCon=     1 RMS=2.44D-04 Max=2.35D-03
 LinEq1:  Iter=  4 NonCon=     1 RMS=8.00D-05 Max=5.42D-04
 LinEq1:  Iter=  5 NonCon=     1 RMS=2.15D-05 Max=1.44D-04
 LinEq1:  Iter=  6 NonCon=     1 RMS=5.37D-06 Max=3.09D-05
 LinEq1:  Iter=  7 NonCon=     1 RMS=1.09D-06 Max=1.34D-05
 LinEq1:  Iter=  8 NonCon=     1 RMS=3.00D-07 Max=1.74D-06
 LinEq1:  Iter=  9 NonCon=     1 RMS=1.54D-07 Max=1.84D-06
 LinEq1:  Iter= 10 NonCon=     1 RMS=4.98D-08 Max=7.64D-07
 LinEq1:  Iter= 11 NonCon=     1 RMS=1.15D-08 Max=1.35D-07
 LinEq1:  Iter= 12 NonCon=     1 RMS=3.07D-09 Max=3.22D-08
 LinEq1:  Iter= 13 NonCon=     1 RMS=5.38D-10 Max=3.52D-09
 LinEq1:  Iter= 14 NonCon=     0 RMS=8.34D-11 Max=5.85D-10
 Linear equations converged to 1.000D-10 1.000D-09 after    14 iterations.
 End of Minotr Frequency-dependent properties file   721 does not exist.
 End of Minotr Frequency-dependent properties file   722 does not exist.
   1 Symmetry operations used in ECPInt.
 ECPInt:  NShTT=     630 NPrTT=    3262 LenC2=     621 LenP2D=    2650.
 LDataN:  DoStor=T MaxTD1= 5 Len=  102
 Calling FoFJK, ICntrl=      2127 FMM=F ISym2X=0 I1Cent= 0 IOpClX= 0 NMat=1 NMatS=1 NMatT=0.
 ***** Axes restored to original set *****
 -------------------------------------------------------------------
 Center     Atomic                   Forces (Hartrees/Bohr)
 Number     Number              X              Y              Z
 -------------------------------------------------------------------
      1        6           0.002651370    0.010261164    0.000880671
      2        6          -0.000568024   -0.000244405    0.000081476
      3        1           0.000480702   -0.001308397    0.000061578
      4        1          -0.000392418    0.000302505    0.000442406
      5        1           0.000446662   -0.000381047   -0.000528833
      6        1           0.000460832   -0.000324102   -0.000566095
      7       50           0.000783016   -0.000085826   -0.000880166
      8       50          -0.000027643    0.000261142    0.001325977
      9        9          -0.001155828   -0.007790855   -0.000833892
     10       35          -0.002678669   -0.000690178    0.000016878
 -------------------------------------------------------------------
 Cartesian Forces:  Max     0.010261164 RMS     0.002521501

 GradGradGradGradGradGradGradGradGradGradGradGradGradGradGradGradGradGrad
 Berny optimization.
 Using GEDIIS/GDIIS optimizer.
 Internal  Forces:  Max     0.007914844 RMS     0.001631554
 Search for a local minimum.
 Step number   2 out of a maximum of   43
 All quantities printed in internal units (Hartrees-Bohrs-Radians)
 Mixed Optimization -- RFO/linear search
 Update second derivatives using D2CorX and points    1    2
 DE= -4.69D-03 DEPred=-4.82D-03 R= 9.73D-01
 SS=  1.41D+00  RLast= 1.77D-01 DXNew= 5.0454D-01 5.3175D-01
 Trust test= 9.73D-01 RLast= 1.77D-01 DXMaxT set to 5.05D-01
 Use linear search instead of GDIIS.
     Eigenvalues ---    0.00230   0.00230   0.01679   0.02876   0.03147
     Eigenvalues ---    0.03149   0.05290   0.07070   0.12166   0.12213
     Eigenvalues ---    0.12241   0.12451   0.12773   0.15923   0.16000
     Eigenvalues ---    0.16023   0.18119   0.21962   0.23190   0.24986
     Eigenvalues ---    0.25012   0.35971   0.44110   0.656341000.00000
     Eigenvalues --- 1000.000001000.000001000.000001000.000001000.00000
     Eigenvalues --- 1000.000001000.000001000.00000
 RFO step:  Lambda=-3.93825864D-04 EMin= 2.29697783D-03
 Quartic linear search produced a step of  0.04006.
 Iteration  1 RMS(Cart)=  0.07743025 RMS(Int)=  0.00178223
 Iteration  2 RMS(Cart)=  0.00225103 RMS(Int)=  0.00001155
 Iteration  3 RMS(Cart)=  0.00000108 RMS(Int)=  0.00001152
 Iteration  4 RMS(Cart)=  0.00000000 RMS(Int)=  0.00001152
 Variable       Old X    -DE/DX   Delta X   Delta X   Delta X     New X
                                 (Linear)    (Quad)   (Total)
    R1        2.57194  -0.00203   0.00310  -0.00364  -0.00054   2.57141
    R2        2.67739   0.00791   0.00296   0.01640   0.01936   2.69675
    R3        3.72119  -0.00277   0.00317  -0.01688  -0.01371   3.70748
    R4        2.08174   0.00017   0.00163   0.00040   0.00203   2.08377
    R5        4.06067  -0.00028   0.00074  -0.00228  -0.00153   4.05913
    R6        3.27800  -0.00042   0.00135  -0.00347  -0.00212   3.27589
    R7        3.28602  -0.00052   0.00114  -0.00437  -0.00323   3.28279
    R8        3.28599  -0.00051   0.00110  -0.00429  -0.00319   3.28280
    R9        5.19343  -0.00101  -0.00311  -0.01520  -0.01831   5.17512
    A1        2.12848  -0.00052  -0.00007  -0.00217  -0.00225   2.12623
    A2        2.23839   0.00036  -0.00013   0.00147   0.00134   2.23972
    A3        1.91632   0.00017   0.00020   0.00068   0.00088   1.91719
    A4        1.99824  -0.00067   0.00032  -0.00576  -0.00545   1.99279
    A5        2.26532  -0.00147  -0.00016  -0.00698  -0.00714   2.25818
    A6        2.01845   0.00214  -0.00016   0.01251   0.01235   2.03079
    A7        1.81782   0.00097   0.00060   0.01050   0.01109   1.82891
    A8        1.97228  -0.00062  -0.00005  -0.00102  -0.00108   1.97120
    A9        2.03369  -0.00032  -0.00020  -0.00026  -0.00048   2.03321
   A10        1.80237   0.00100   0.00099   0.01337   0.01432   1.81669
   A11        1.91652  -0.00030   0.00001   0.00129   0.00129   1.91780
   A12        1.93495  -0.00022  -0.00006   0.00173   0.00165   1.93660
    D1        0.01925  -0.00013   0.00034  -0.00233  -0.00200   0.01725
    D2        3.10575  -0.00018   0.00022  -0.00729  -0.00706   3.09869
    D3       -3.11783   0.00006   0.00005   0.00372   0.00377  -3.11407
    D4       -0.03133   0.00001  -0.00007  -0.00124  -0.00129  -0.03263
    D5        0.52744  -0.00012  -0.00056  -0.09459  -0.09515   0.43229
    D6        2.75097  -0.00022  -0.00041  -0.08794  -0.08832   2.66265
    D7       -2.66977  -0.00025  -0.00067  -0.10008  -0.10077  -2.77054
    D8       -0.44624  -0.00034  -0.00052  -0.09343  -0.09395  -0.54018
    D9        3.01936   0.00015   0.00016  -0.00708  -0.00691   3.01246
   D10        1.03885  -0.00075  -0.00100  -0.02492  -0.02592   1.01293
   D11       -1.15928   0.00071   0.00078   0.00622   0.00701  -1.15227
   D12       -3.13979  -0.00020  -0.00037  -0.01161  -0.01200   3.13139
         Item               Value     Threshold  Converged?
 Maximum Force            0.007915     0.000450     NO 
 RMS     Force            0.001632     0.000300     NO 
 Maximum Displacement     0.264124     0.001800     NO 
 RMS     Displacement     0.077503     0.001200     NO 
 Predicted change in Energy=-2.024889D-04
 GradGradGradGradGradGradGradGradGradGradGradGradGradGradGradGradGradGrad

                          Input orientation:                          
 ---------------------------------------------------------------------
 Center     Atomic      Atomic             Coordinates (Angstroms)
 Number     Number       Type             X           Y           Z
 ---------------------------------------------------------------------
      1          6           0        1.113379   -2.322998   -0.078211
      2          6           0        0.047596   -1.502610    0.128325
      3          1           0       -0.921621   -2.025843    0.180774
      4          1           0        1.462235    1.210482   -0.269034
      5          1           0       -2.369894    3.447864    0.126724
      6          1           0       -3.698296    1.072901    0.442493
      7         50           0        0.005039    0.619147    0.460356
      8         50           0       -2.333124    1.781999   -0.364535
      9          9           0        0.958702   -3.733232   -0.232500
     10         35           0        3.012328   -1.844309   -0.196393
 ---------------------------------------------------------------------
                    Distance matrix (angstroms):
                    1          2          3          4          5
     1  C    0.000000
     2  C    1.360730   0.000000
     3  H    2.072825   1.102681   0.000000
     4  H    3.555783   3.085444   4.044613   0.000000
     5  H    6.743741   5.509215   5.662321   4.455077   0.000000
     6  H    5.912316   4.556716   4.169008   5.211168   2.739491
     7  Sn   3.189779   2.148001   2.816529   1.733525   3.708538
     8  Sn   5.367622   4.086489   4.097482   3.839335   1.737180
     9  F    1.427056   2.436387   2.573244   4.969425   7.923176
    10  Br   1.961916   3.001971   3.956155   3.426341   7.555118
                    6          7          8          9         10
     6  H    0.000000
     7  Sn   3.731072   0.000000
     8  Sn   1.737184   2.738554   0.000000
     9  F    6.726229   4.509182   6.424276   0.000000
    10  Br   7.345118   3.942552   6.461597   2.790468   0.000000
 Stoichiometry    C2H4BrFSn2
 Framework group  C1[X(C2H4BrFSn2)]
 Deg. of freedom    24
 Full point group                 C1      NOp   1
 Largest Abelian subgroup         C1      NOp   1
 Largest concise Abelian subgroup C1      NOp   1
                         Standard orientation:                         
 ---------------------------------------------------------------------
 Center     Atomic      Atomic             Coordinates (Angstroms)
 Number     Number       Type             X           Y           Z
 ---------------------------------------------------------------------
      1          6           0       -2.371941    1.046237    0.092734
      2          6           0       -1.031270    1.079502    0.323129
      3          1           0       -0.636991    2.083706    0.551218
      4          1           0       -0.333892   -1.793570   -0.559528
      5          1           0        4.026664   -1.082005    0.012256
      6          1           0        3.484912    1.496057    0.763862
      7         50           0        0.378785   -0.538996    0.401328
      8         50           0        2.919618    0.225155   -0.276840
      9          9           0       -3.171032    2.228067    0.127682
     10         35           0       -3.500065   -0.509119   -0.303901
 ---------------------------------------------------------------------
 Rotational constants (GHZ):      2.1878068      0.2172487      0.2036608
 Standard basis: LANL2DZ (5D, 7F)
 There are    59 symmetry adapted basis functions of A   symmetry.
 Integral buffers will be    131072 words long.
 Raffenetti 1 integral format.
 Two-electron integral symmetry is turned on.
    59 basis functions,   127 primitive gaussians,    59 cartesian basis functions
    20 alpha electrons       20 beta electrons
       nuclear repulsion energy       131.2581114987 Hartrees.
 NAtoms=   10 NActive=   10 NUniq=   10 SFac= 7.50D-01 NAtFMM=   80 NAOKFM=F Big=F
 One-electron integrals computed using PRISM.
   1 Symmetry operations used in ECPInt.
 ECPInt:  NShTT=     630 NPrTT=    3262 LenC2=     621 LenP2D=    2651.
 LDataN:  DoStor=T MaxTD1= 4 Len=   56
 NBasis=    59 RedAO= T  NBF=    59
 NBsUse=    59 1.00D-06 NBFU=    59
 Initial guess read from the read-write file.
 B after Tr=     0.000000    0.000000    0.000000
         Rot=    1.000000    0.000000    0.000000    0.000000 Ang=   0.00 deg.
 Initial guess orbital symmetries:
       Occupied  (A) (A) (A) (A) (A) (A) (A) (A) (A) (A) (A) (A)
                 (A) (A) (A) (A) (A) (A) (A) (A)
       Virtual   (A) (A) (A) (A) (A) (A) (A) (A) (A) (A) (A) (A)
                 (A) (A) (A) (A) (A) (A) (A) (A) (A) (A) (A) (A)
                 (A) (A) (A) (A) (A) (A) (A) (A) (A) (A) (A) (A)
                 (A) (A) (A)
 Harris functional with IExCor=  205 diagonalized for initial guess.
 ExpMin= 6.30D-02 ExpMax= 1.00D+04 ExpMxC= 3.50D+02 IAcc=2 IRadAn=         0 AccDes= 0.00D+00
 HarFok:  IExCor=  205 AccDes= 0.00D+00 IRadAn=         0 IDoV= 1
 ScaDFX=  1.000000  1.000000  1.000000  1.000000
 Defaulting to unpruned grid for atomic number  50.
 Defaulting to unpruned grid for atomic number  50.
 Defaulting to unpruned grid for atomic number  50.
 Defaulting to unpruned grid for atomic number  50.
 Defaulting to unpruned grid for atomic number  50.
 Defaulting to unpruned grid for atomic number  50.
 Defaulting to unpruned grid for atomic number  50.
 Defaulting to unpruned grid for atomic number  50.
 Defaulting to unpruned grid for atomic number  50.
 Defaulting to unpruned grid for atomic number  50.
 Defaulting to unpruned grid for atomic number  50.
 Defaulting to unpruned grid for atomic number  50.
 Defaulting to unpruned grid for atomic number  50.
 Defaulting to unpruned grid for atomic number  50.
 Defaulting to unpruned grid for atomic number  50.
 Defaulting to unpruned grid for atomic number  50.
 Defaulting to unpruned grid for atomic number  50.
 Defaulting to unpruned grid for atomic number  50.
 Defaulting to unpruned grid for atomic number  50.
 Defaulting to unpruned grid for atomic number  50.
 FoFCou: FMM=F IPFlag=           0 FMFlag=      100000 FMFlg1=           0
         NFxFlg=           0 DoJE=T BraDBF=F KetDBF=T FulRan=T
         Omega=  0.000000  0.000000  1.000000  0.000000  0.000000 ICntrl=     500 IOpCl=  0
         NMat0=    1 NMatS0=    1 NMatT0=    0 NMatD0=    1 NMtDS0=    0 NMtDT0=    0
         I1Cent=           4 NGrid=           0.
 Petite list used in FoFCou.
 Requested convergence on RMS density matrix=1.00D-08 within 128 cycles.
 Requested convergence on MAX density matrix=1.00D-06.
 Requested convergence on             energy=1.00D-06.
 No special actions if energy rises.
 Keep R1 ints in memory in canonical form, NReq=2397586.
 SCF Done:  E(RHF) =  -196.776808957     A.U. after   12 cycles
             Convg  =    0.6629D-08             -V/T =  2.0727
 ExpMin= 6.30D-02 ExpMax= 1.00D+04 ExpMxC= 3.50D+02 IAcc=3 IRadAn=         5 AccDes= 0.00D+00
 HarFok:  IExCor=  205 AccDes= 0.00D+00 IRadAn=         5 IDoV=-2
 ScaDFX=  1.000000  1.000000  1.000000  1.000000
 Defaulting to unpruned grid for atomic number  50.
 Defaulting to unpruned grid for atomic number  50.
 Defaulting to unpruned grid for atomic number  50.
 Defaulting to unpruned grid for atomic number  50.
 Defaulting to unpruned grid for atomic number  50.
 Defaulting to unpruned grid for atomic number  50.
 Defaulting to unpruned grid for atomic number  50.
 Defaulting to unpruned grid for atomic number  50.
 Defaulting to unpruned grid for atomic number  50.
 Defaulting to unpruned grid for atomic number  50.
 Defaulting to unpruned grid for atomic number  50.
 Defaulting to unpruned grid for atomic number  50.
 Defaulting to unpruned grid for atomic number  50.
 Defaulting to unpruned grid for atomic number  50.
 Defaulting to unpruned grid for atomic number  50.
 Defaulting to unpruned grid for atomic number  50.
 Defaulting to unpruned grid for atomic number  50.
 Defaulting to unpruned grid for atomic number  50.
 Defaulting to unpruned grid for atomic number  50.
 Defaulting to unpruned grid for atomic number  50.
 Range of M.O.s used for correlation:     4    59
 NBasis=    59 NAE=    20 NBE=    20 NFC=     3 NFV=     0
 NROrb=     56 NOA=    17 NOB=    17 NVA=    39 NVB=    39
 Fully direct method using O(ONN) memory.
 JobTyp=1 Pass  1:  I=   4 to  20 NPSUse= 20 ParTrn=T ParDer=T DoDerP=T.
 Spin components of T(2) and E(2):
     alpha-alpha T2 =       0.2225260276D-01 E2=     -0.4743801988D-01
     alpha-beta  T2 =       0.1689706309D+00 E2=     -0.3233715247D+00
     beta-beta   T2 =       0.2225260276D-01 E2=     -0.4743801988D-01
 ANorm=    0.1101578793D+01
 E2 =    -0.4182475644D+00 EUMP2 =    -0.19719505652125D+03
          IDoAtm=1111111111
          Differentiating once with respect to electric field.
                with respect to dipole field.
          Differentiating once with respect to nuclear coordinates.
          Keep R1 ints in memory in canonical form, NReq=2368185.
          There are     1 degrees of freedom in the 1st order CPHF.  IDoFFX=0.
 LinEq1:  Iter=  0 NonCon=     1 RMS=9.64D-03 Max=9.51D-02
 AX will form     1 AO Fock derivatives at one time.
 LinEq1:  Iter=  1 NonCon=     1 RMS=3.82D-03 Max=3.21D-02
 LinEq1:  Iter=  2 NonCon=     1 RMS=1.21D-03 Max=1.32D-02
 LinEq1:  Iter=  3 NonCon=     1 RMS=2.46D-04 Max=2.39D-03
 LinEq1:  Iter=  4 NonCon=     1 RMS=8.21D-05 Max=5.63D-04
 LinEq1:  Iter=  5 NonCon=     1 RMS=2.18D-05 Max=1.26D-04
 LinEq1:  Iter=  6 NonCon=     1 RMS=5.58D-06 Max=3.86D-05
 LinEq1:  Iter=  7 NonCon=     1 RMS=1.48D-06 Max=1.12D-05
 LinEq1:  Iter=  8 NonCon=     1 RMS=7.21D-07 Max=6.52D-06
 LinEq1:  Iter=  9 NonCon=     1 RMS=1.85D-07 Max=1.55D-06
 LinEq1:  Iter= 10 NonCon=     1 RMS=4.53D-08 Max=6.50D-07
 LinEq1:  Iter= 11 NonCon=     1 RMS=9.31D-09 Max=1.07D-07
 LinEq1:  Iter= 12 NonCon=     1 RMS=2.92D-09 Max=3.83D-08
 LinEq1:  Iter= 13 NonCon=     1 RMS=5.33D-10 Max=3.77D-09
 LinEq1:  Iter= 14 NonCon=     0 RMS=8.43D-11 Max=5.85D-10
 Linear equations converged to 1.000D-10 1.000D-09 after    14 iterations.
 End of Minotr Frequency-dependent properties file   721 does not exist.
 End of Minotr Frequency-dependent properties file   722 does not exist.
   1 Symmetry operations used in ECPInt.
 ECPInt:  NShTT=     630 NPrTT=    3262 LenC2=     621 LenP2D=    2651.
 LDataN:  DoStor=T MaxTD1= 5 Len=  102
 Calling FoFJK, ICntrl=      2127 FMM=F ISym2X=0 I1Cent= 0 IOpClX= 0 NMat=1 NMatS=1 NMatT=0.
 ***** Axes restored to original set *****
 -------------------------------------------------------------------
 Center     Atomic                   Forces (Hartrees/Bohr)
 Number     Number              X              Y              Z
 -------------------------------------------------------------------
      1        6           0.001565977    0.004962996    0.000562570
      2        6          -0.000882908   -0.001322962   -0.000002885
      3        1           0.000690109    0.000031491   -0.000101383
      4        1          -0.000451445    0.000006316    0.000263430
      5        1           0.000078567   -0.000235395   -0.000276448
      6        1           0.000246542   -0.000023395   -0.000265953
      7       50           0.000469003   -0.000258134   -0.000367275
      8       50          -0.000338584    0.000340915    0.000570060
      9        9          -0.000693695   -0.002471382   -0.000245272
     10       35          -0.000683565   -0.001030451   -0.000136844
 -------------------------------------------------------------------
 Cartesian Forces:  Max     0.004962996 RMS     0.001156646

 GradGradGradGradGradGradGradGradGradGradGradGradGradGradGradGradGradGrad
 Berny optimization.
 Using GEDIIS/GDIIS optimizer.
 Internal  Forces:  Max     0.002543956 RMS     0.000770702
 Search for a local minimum.
 Step number   3 out of a maximum of   43
 All quantities printed in internal units (Hartrees-Bohrs-Radians)
 Mixed Optimization -- En-DIIS/RFO-DIIS
 Update second derivatives using D2CorX and points    1    2    3
 DE= -2.50D-04 DEPred=-2.02D-04 R= 1.23D+00
 SS=  1.41D+00  RLast= 1.96D-01 DXNew= 8.4853D-01 5.8728D-01
 Trust test= 1.23D+00 RLast= 1.96D-01 DXMaxT set to 5.87D-01
 Use linear search instead of GDIIS.
     Eigenvalues ---    0.00221   0.00233   0.01671   0.02781   0.03144
     Eigenvalues ---    0.03166   0.04793   0.07028   0.11852   0.12166
     Eigenvalues ---    0.12232   0.12461   0.12766   0.15254   0.16007
     Eigenvalues ---    0.16018   0.17153   0.21755   0.23049   0.24920
     Eigenvalues ---    0.26831   0.36513   0.41163   0.653621000.00000
     Eigenvalues --- 1000.000001000.000001000.000001000.000001000.00000
     Eigenvalues --- 1000.000001000.000001000.00000
 RFO step:  Lambda=-8.97162392D-05 EMin= 2.20722000D-03
 Quartic linear search produced a step of  0.35476.
 Iteration  1 RMS(Cart)=  0.03911108 RMS(Int)=  0.00046093
 Iteration  2 RMS(Cart)=  0.00059307 RMS(Int)=  0.00001246
 Iteration  3 RMS(Cart)=  0.00000008 RMS(Int)=  0.00001246
 Variable       Old X    -DE/DX   Delta X   Delta X   Delta X     New X
                                 (Linear)    (Quad)   (Total)
    R1        2.57141  -0.00076  -0.00019   0.00007  -0.00012   2.57129
    R2        2.69675   0.00254   0.00687   0.00593   0.01280   2.70954
    R3        3.70748  -0.00090  -0.00486  -0.00353  -0.00840   3.69909
    R4        2.08377  -0.00063   0.00072  -0.00172  -0.00100   2.08276
    R5        4.05913  -0.00018  -0.00054  -0.00125  -0.00179   4.05734
    R6        3.27589  -0.00049  -0.00075  -0.00422  -0.00497   3.27092
    R7        3.28279  -0.00031  -0.00115  -0.00226  -0.00341   3.27938
    R8        3.28280  -0.00031  -0.00113  -0.00232  -0.00345   3.27935
    R9        5.17512   0.00004  -0.00650   0.00113  -0.00537   5.16975
    A1        2.12623  -0.00181  -0.00080  -0.00944  -0.01024   2.11599
    A2        2.23972   0.00248   0.00048   0.01309   0.01356   2.25329
    A3        1.91719  -0.00067   0.00031  -0.00361  -0.00330   1.91390
    A4        1.99279  -0.00055  -0.00193  -0.00315  -0.00509   1.98770
    A5        2.25818   0.00047  -0.00253   0.00371   0.00117   2.25935
    A6        2.03079   0.00009   0.00438  -0.00044   0.00394   2.03473
    A7        1.82891   0.00030   0.00393   0.00320   0.00713   1.83604
    A8        1.97120  -0.00008  -0.00038   0.00033  -0.00006   1.97114
    A9        2.03321  -0.00018  -0.00017  -0.00095  -0.00113   2.03208
   A10        1.81669   0.00025   0.00508   0.00481   0.00985   1.82654
   A11        1.91780   0.00019   0.00046   0.00337   0.00380   1.92160
   A12        1.93660   0.00001   0.00058   0.00173   0.00229   1.93889
    D1        0.01725   0.00001  -0.00071   0.00052  -0.00019   0.01706
    D2        3.09869   0.00004  -0.00250   0.00304   0.00054   3.09923
    D3       -3.11407  -0.00012   0.00134  -0.00574  -0.00441  -3.11848
    D4       -0.03263  -0.00008  -0.00046  -0.00323  -0.00368  -0.03631
    D5        0.43229  -0.00002  -0.03375  -0.01283  -0.04659   0.38570
    D6        2.66265  -0.00008  -0.03133  -0.01144  -0.04276   2.61989
    D7       -2.77054   0.00000  -0.03575  -0.01034  -0.04610  -2.81664
    D8       -0.54018  -0.00006  -0.03333  -0.00895  -0.04227  -0.58246
    D9        3.01246   0.00012  -0.00245   0.01252   0.01009   3.02255
   D10        1.01293  -0.00029  -0.00920   0.00371  -0.00550   1.00743
   D11       -1.15227   0.00032   0.00249   0.01644   0.01895  -1.13333
   D12        3.13139  -0.00009  -0.00426   0.00763   0.00335   3.13474
         Item               Value     Threshold  Converged?
 Maximum Force            0.002544     0.000450     NO 
 RMS     Force            0.000771     0.000300     NO 
 Maximum Displacement     0.137086     0.001800     NO 
 RMS     Displacement     0.039082     0.001200     NO 
 Predicted change in Energy=-6.241097D-05
 GradGradGradGradGradGradGradGradGradGradGradGradGradGradGradGradGradGrad

                          Input orientation:                          
 ---------------------------------------------------------------------
 Center     Atomic      Atomic             Coordinates (Angstroms)
 Number     Number       Type             X           Y           Z
 ---------------------------------------------------------------------
      1          6           0        1.113583   -2.314889   -0.086972
      2          6           0        0.049183   -1.501167    0.150350
      3          1           0       -0.911876   -2.034946    0.228984
      4          1           0        1.464800    1.222222   -0.214960
      5          1           0       -2.367975    3.448505    0.104551
      6          1           0       -3.701682    1.066098    0.407796
      7         50           0        0.000576    0.619253    0.483952
      8         50           0       -2.324678    1.779972   -0.370474
      9          9           0        0.947998   -3.731275   -0.236290
     10         35           0        3.006415   -1.850373   -0.268936
 ---------------------------------------------------------------------
                    Distance matrix (angstroms):
                    1          2          3          4          5
     1  C    0.000000
     2  C    1.360666   0.000000
     3  H    2.068980   1.102151   0.000000
     4  H    3.556809   3.090999   4.056454   0.000000
     5  H    6.736069   5.508539   5.674852   4.443938   0.000000
     6  H    5.904459   4.552594   4.175101   5.206221   2.747107
     7  Sn   3.189660   2.147052   2.818217   1.730897   3.709264
     8  Sn   5.354427   4.083178   4.112050   3.833460   1.735375
     9  F    1.433829   2.435312   2.559911   4.980429   7.915876
    10  Br   1.957473   3.007153   3.954112   3.438071   7.556565
                    6          7          8          9         10
     6  H    0.000000
     7  Sn   3.729904   0.000000
     8  Sn   1.735356   2.735711   0.000000
     9  F    6.711867   4.510372   6.411104   0.000000
    10  Br   7.345906   3.962444   6.450602   2.788537   0.000000
 Stoichiometry    C2H4BrFSn2
 Framework group  C1[X(C2H4BrFSn2)]
 Deg. of freedom    24
 Full point group                 C1      NOp   1
 Largest Abelian subgroup         C1      NOp   1
 Largest concise Abelian subgroup C1      NOp   1
                         Standard orientation:                         
 ---------------------------------------------------------------------
 Center     Atomic      Atomic             Coordinates (Angstroms)
 Number     Number       Type             X           Y           Z
 ---------------------------------------------------------------------
      1          6           0       -2.368755    1.031284    0.107162
      2          6           0       -1.031864    1.068884    0.357601
      3          1           0       -0.652119    2.073685    0.604396
      4          1           0       -0.326515   -1.819314   -0.488015
      5          1           0        4.029660   -1.070274   -0.028387
      6          1           0        3.484909    1.520312    0.705582
      7         50           0        0.387678   -0.540134    0.433738
      8         50           0        2.909392    0.227246   -0.298519
      9          9           0       -3.167094    2.221518    0.150312
     10         35           0       -3.499482   -0.504419   -0.334170
 ---------------------------------------------------------------------
 Rotational constants (GHZ):      2.1386416      0.2173107      0.2043470
 Standard basis: LANL2DZ (5D, 7F)
 There are    59 symmetry adapted basis functions of A   symmetry.
 Integral buffers will be    131072 words long.
 Raffenetti 1 integral format.
 Two-electron integral symmetry is turned on.
    59 basis functions,   127 primitive gaussians,    59 cartesian basis functions
    20 alpha electrons       20 beta electrons
       nuclear repulsion energy       131.2073780539 Hartrees.
 NAtoms=   10 NActive=   10 NUniq=   10 SFac= 7.50D-01 NAtFMM=   80 NAOKFM=F Big=F
 One-electron integrals computed using PRISM.
   1 Symmetry operations used in ECPInt.
 ECPInt:  NShTT=     630 NPrTT=    3262 LenC2=     621 LenP2D=    2652.
 LDataN:  DoStor=T MaxTD1= 4 Len=   56
 NBasis=    59 RedAO= T  NBF=    59
 NBsUse=    59 1.00D-06 NBFU=    59
 Initial guess read from the read-write file.
 B after Tr=     0.000000    0.000000    0.000000
         Rot=    1.000000    0.000000    0.000000    0.000000 Ang=   0.00 deg.
 Initial guess orbital symmetries:
       Occupied  (A) (A) (A) (A) (A) (A) (A) (A) (A) (A) (A) (A)
                 (A) (A) (A) (A) (A) (A) (A) (A)
       Virtual   (A) (A) (A) (A) (A) (A) (A) (A) (A) (A) (A) (A)
                 (A) (A) (A) (A) (A) (A) (A) (A) (A) (A) (A) (A)
                 (A) (A) (A) (A) (A) (A) (A) (A) (A) (A) (A) (A)
                 (A) (A) (A)
 Harris functional with IExCor=  205 diagonalized for initial guess.
 ExpMin= 6.30D-02 ExpMax= 1.00D+04 ExpMxC= 3.50D+02 IAcc=2 IRadAn=         0 AccDes= 0.00D+00
 HarFok:  IExCor=  205 AccDes= 0.00D+00 IRadAn=         0 IDoV= 1
 ScaDFX=  1.000000  1.000000  1.000000  1.000000
 Defaulting to unpruned grid for atomic number  50.
 Defaulting to unpruned grid for atomic number  50.
 Defaulting to unpruned grid for atomic number  50.
 Defaulting to unpruned grid for atomic number  50.
 Defaulting to unpruned grid for atomic number  50.
 Defaulting to unpruned grid for atomic number  50.
 Defaulting to unpruned grid for atomic number  50.
 Defaulting to unpruned grid for atomic number  50.
 Defaulting to unpruned grid for atomic number  50.
 Defaulting to unpruned grid for atomic number  50.
 Defaulting to unpruned grid for atomic number  50.
 Defaulting to unpruned grid for atomic number  50.
 Defaulting to unpruned grid for atomic number  50.
 Defaulting to unpruned grid for atomic number  50.
 Defaulting to unpruned grid for atomic number  50.
 Defaulting to unpruned grid for atomic number  50.
 Defaulting to unpruned grid for atomic number  50.
 Defaulting to unpruned grid for atomic number  50.
 Defaulting to unpruned grid for atomic number  50.
 Defaulting to unpruned grid for atomic number  50.
 FoFCou: FMM=F IPFlag=           0 FMFlag=      100000 FMFlg1=           0
         NFxFlg=           0 DoJE=T BraDBF=F KetDBF=T FulRan=T
         Omega=  0.000000  0.000000  1.000000  0.000000  0.000000 ICntrl=     500 IOpCl=  0
         NMat0=    1 NMatS0=    1 NMatT0=    0 NMatD0=    1 NMtDS0=    0 NMtDT0=    0
         I1Cent=           4 NGrid=           0.
 Petite list used in FoFCou.
 Requested convergence on RMS density matrix=1.00D-08 within 128 cycles.
 Requested convergence on MAX density matrix=1.00D-06.
 Requested convergence on             energy=1.00D-06.
 No special actions if energy rises.
 Keep R1 ints in memory in canonical form, NReq=2397586.
 SCF Done:  E(RHF) =  -196.776528906     A.U. after   12 cycles
             Convg  =    0.4878D-08             -V/T =  2.0727
 ExpMin= 6.30D-02 ExpMax= 1.00D+04 ExpMxC= 3.50D+02 IAcc=3 IRadAn=         5 AccDes= 0.00D+00
 HarFok:  IExCor=  205 AccDes= 0.00D+00 IRadAn=         5 IDoV=-2
 ScaDFX=  1.000000  1.000000  1.000000  1.000000
 Defaulting to unpruned grid for atomic number  50.
 Defaulting to unpruned grid for atomic number  50.
 Defaulting to unpruned grid for atomic number  50.
 Defaulting to unpruned grid for atomic number  50.
 Defaulting to unpruned grid for atomic number  50.
 Defaulting to unpruned grid for atomic number  50.
 Defaulting to unpruned grid for atomic number  50.
 Defaulting to unpruned grid for atomic number  50.
 Defaulting to unpruned grid for atomic number  50.
 Defaulting to unpruned grid for atomic number  50.
 Defaulting to unpruned grid for atomic number  50.
 Defaulting to unpruned grid for atomic number  50.
 Defaulting to unpruned grid for atomic number  50.
 Defaulting to unpruned grid for atomic number  50.
 Defaulting to unpruned grid for atomic number  50.
 Defaulting to unpruned grid for atomic number  50.
 Defaulting to unpruned grid for atomic number  50.
 Defaulting to unpruned grid for atomic number  50.
 Defaulting to unpruned grid for atomic number  50.
 Defaulting to unpruned grid for atomic number  50.
 Range of M.O.s used for correlation:     4    59
 NBasis=    59 NAE=    20 NBE=    20 NFC=     3 NFV=     0
 NROrb=     56 NOA=    17 NOB=    17 NVA=    39 NVB=    39
 Fully direct method using O(ONN) memory.
 JobTyp=1 Pass  1:  I=   4 to  20 NPSUse= 20 ParTrn=T ParDer=T DoDerP=T.
 Spin components of T(2) and E(2):
     alpha-alpha T2 =       0.2228916009D-01 E2=     -0.4749388267D-01
     alpha-beta  T2 =       0.1691464021D+00 E2=     -0.3236126231D+00
     beta-beta   T2 =       0.2228916009D-01 E2=     -0.4749388267D-01
 ANorm=    0.1101691755D+01
 E2 =    -0.4186003884D+00 EUMP2 =    -0.19719512929487D+03
          IDoAtm=1111111111
          Differentiating once with respect to electric field.
                with respect to dipole field.
          Differentiating once with respect to nuclear coordinates.
          Keep R1 ints in memory in canonical form, NReq=2368185.
          There are     1 degrees of freedom in the 1st order CPHF.  IDoFFX=0.
 LinEq1:  Iter=  0 NonCon=     1 RMS=9.63D-03 Max=9.69D-02
 AX will form     1 AO Fock derivatives at one time.
 LinEq1:  Iter=  1 NonCon=     1 RMS=3.83D-03 Max=3.24D-02
 LinEq1:  Iter=  2 NonCon=     1 RMS=1.21D-03 Max=1.34D-02
 LinEq1:  Iter=  3 NonCon=     1 RMS=2.47D-04 Max=2.38D-03
 LinEq1:  Iter=  4 NonCon=     1 RMS=8.36D-05 Max=5.79D-04
 LinEq1:  Iter=  5 NonCon=     1 RMS=2.22D-05 Max=1.22D-04
 LinEq1:  Iter=  6 NonCon=     1 RMS=5.89D-06 Max=4.57D-05
 LinEq1:  Iter=  7 NonCon=     1 RMS=1.93D-06 Max=1.52D-05
 LinEq1:  Iter=  8 NonCon=     1 RMS=8.27D-07 Max=7.49D-06
 LinEq1:  Iter=  9 NonCon=     1 RMS=1.84D-07 Max=1.60D-06
 LinEq1:  Iter= 10 NonCon=     1 RMS=4.14D-08 Max=5.03D-07
 LinEq1:  Iter= 11 NonCon=     1 RMS=7.36D-09 Max=7.52D-08
 LinEq1:  Iter= 12 NonCon=     1 RMS=2.47D-09 Max=3.90D-08
 LinEq1:  Iter= 13 NonCon=     1 RMS=5.16D-10 Max=4.17D-09
 LinEq1:  Iter= 14 NonCon=     0 RMS=8.47D-11 Max=5.78D-10
 Linear equations converged to 1.000D-10 1.000D-09 after    14 iterations.
 End of Minotr Frequency-dependent properties file   721 does not exist.
 End of Minotr Frequency-dependent properties file   722 does not exist.
   1 Symmetry operations used in ECPInt.
 ECPInt:  NShTT=     630 NPrTT=    3262 LenC2=     621 LenP2D=    2652.
 LDataN:  DoStor=T MaxTD1= 5 Len=  102
 Calling FoFJK, ICntrl=      2127 FMM=F ISym2X=0 I1Cent= 0 IOpClX= 0 NMat=1 NMatS=1 NMatT=0.
 ***** Axes restored to original set *****
 -------------------------------------------------------------------
 Center     Atomic                   Forces (Hartrees/Bohr)
 Number     Number              X              Y              Z
 -------------------------------------------------------------------
      1        6           0.000148935    0.001160545    0.000088770
      2        6           0.000227479   -0.000914282   -0.000079060
      3        1           0.000234353    0.000312806   -0.000034769
      4        1           0.000088089   -0.000074057   -0.000122724
      5        1          -0.000110078   -0.000022960    0.000070375
      6        1          -0.000012867    0.000082987   -0.000015045
      7       50          -0.000239383   -0.000253544    0.000198195
      8       50           0.000027849    0.000051078   -0.000116814
      9        9          -0.000135713    0.000034029    0.000065240
     10       35          -0.000228664   -0.000376601   -0.000054167
 -------------------------------------------------------------------
 Cartesian Forces:  Max     0.001160545 RMS     0.000309665

 GradGradGradGradGradGradGradGradGradGradGradGradGradGradGradGradGradGrad
 Berny optimization.
 Using GEDIIS/GDIIS optimizer.
 Internal  Forces:  Max     0.000921649 RMS     0.000275718
 Search for a local minimum.
 Step number   4 out of a maximum of   43
 All quantities printed in internal units (Hartrees-Bohrs-Radians)
 Mixed Optimization -- En-DIIS/RFO-DIIS
 Swaping is turned off.
 Update second derivatives using D2CorX and points    1    2    3    4
 DE= -7.28D-05 DEPred=-6.24D-05 R= 1.17D+00
 SS=  1.41D+00  RLast= 9.63D-02 DXNew= 9.8769D-01 2.8890D-01
 Trust test= 1.17D+00 RLast= 9.63D-02 DXMaxT set to 5.87D-01
     Eigenvalues ---    0.00188   0.00243   0.01665   0.02847   0.03122
     Eigenvalues ---    0.03170   0.04956   0.07062   0.11877   0.12170
     Eigenvalues ---    0.12240   0.12499   0.12763   0.14972   0.16009
     Eigenvalues ---    0.16024   0.16504   0.21478   0.23220   0.24749
     Eigenvalues ---    0.25502   0.36072   0.42150   0.646531000.00000
     Eigenvalues --- 1000.000001000.000001000.000001000.000001000.00000
     Eigenvalues --- 1000.000001000.000001000.00000
 En-DIIS/RFO-DIIS IScMMF=        0 using points:     4    3
 RFO step:  Lambda=-5.55469978D-06.
 DIIS coeffs:      1.18607     -0.18607
 Iteration  1 RMS(Cart)=  0.03032371 RMS(Int)=  0.00034449
 Iteration  2 RMS(Cart)=  0.00039615 RMS(Int)=  0.00000205
 Iteration  3 RMS(Cart)=  0.00000005 RMS(Int)=  0.00000205
 Variable       Old X    -DE/DX   Delta X   Delta X   Delta X     New X
                                  (DIIS)     (GDIIS)  (Total)
    R1        2.57129  -0.00068  -0.00002  -0.00105  -0.00107   2.57022
    R2        2.70954  -0.00002   0.00238   0.00072   0.00310   2.71265
    R3        3.69909  -0.00031  -0.00156  -0.00220  -0.00376   3.69533
    R4        2.08276  -0.00036  -0.00019  -0.00085  -0.00104   2.08173
    R5        4.05734  -0.00021  -0.00033  -0.00179  -0.00212   4.05522
    R6        3.27092   0.00010  -0.00092   0.00114   0.00022   3.27114
    R7        3.27938   0.00000  -0.00063   0.00008  -0.00056   3.27883
    R8        3.27935  -0.00003  -0.00064  -0.00021  -0.00085   3.27849
    R9        5.16975   0.00015  -0.00100   0.00115   0.00015   5.16990
    A1        2.11599  -0.00066  -0.00191  -0.00270  -0.00461   2.11138
    A2        2.25329   0.00092   0.00252   0.00369   0.00621   2.25950
    A3        1.91390  -0.00026  -0.00061  -0.00099  -0.00160   1.91229
    A4        1.98770   0.00003  -0.00095   0.00042  -0.00052   1.98718
    A5        2.25935   0.00027   0.00022   0.00096   0.00118   2.26053
    A6        2.03473  -0.00030   0.00073  -0.00134  -0.00061   2.03413
    A7        1.83604  -0.00022   0.00133  -0.00256  -0.00123   1.83481
    A8        1.97114   0.00026  -0.00001   0.00054   0.00052   1.97166
    A9        2.03208  -0.00005  -0.00021  -0.00139  -0.00160   2.03048
   A10        1.82654  -0.00019   0.00183  -0.00159   0.00023   1.82677
   A11        1.92160   0.00012   0.00071   0.00043   0.00113   1.92274
   A12        1.93889   0.00013   0.00043   0.00054   0.00097   1.93986
    D1        0.01706  -0.00006  -0.00004  -0.00244  -0.00247   0.01459
    D2        3.09923  -0.00004   0.00010  -0.00156  -0.00146   3.09777
    D3       -3.11848  -0.00006  -0.00082  -0.00206  -0.00288  -3.12135
    D4       -0.03631  -0.00004  -0.00068  -0.00117  -0.00186  -0.03817
    D5        0.38570  -0.00002  -0.00867  -0.01762  -0.02629   0.35941
    D6        2.61989  -0.00007  -0.00796  -0.02095  -0.02891   2.59098
    D7       -2.81664   0.00001  -0.00858  -0.01667  -0.02525  -2.84189
    D8       -0.58246  -0.00004  -0.00787  -0.02000  -0.02786  -0.61032
    D9        3.02255  -0.00004   0.00188  -0.02707  -0.02518   2.99737
   D10        1.00743   0.00005  -0.00102  -0.02570  -0.02672   0.98071
   D11       -1.13333  -0.00016   0.00353  -0.03126  -0.02773  -1.16105
   D12        3.13474  -0.00007   0.00062  -0.02989  -0.02927   3.10548
         Item               Value     Threshold  Converged?
 Maximum Force            0.000922     0.000450     NO 
 RMS     Force            0.000276     0.000300     YES
 Maximum Displacement     0.094685     0.001800     NO 
 RMS     Displacement     0.030369     0.001200     NO 
 Predicted change in Energy=-1.147543D-05
 GradGradGradGradGradGradGradGradGradGradGradGradGradGradGradGradGradGrad

                          Input orientation:                          
 ---------------------------------------------------------------------
 Center     Atomic      Atomic             Coordinates (Angstroms)
 Number     Number       Type             X           Y           Z
 ---------------------------------------------------------------------
      1          6           0        1.110876   -2.309640   -0.089861
      2          6           0        0.050840   -1.497214    0.167352
      3          1           0       -0.906809   -2.032439    0.267199
      4          1           0        1.472118    1.220447   -0.199296
      5          1           0       -2.377027    3.445378    0.125551
      6          1           0       -3.700531    1.049724    0.357690
      7         50           0        0.003241    0.623037    0.494898
      8         50           0       -2.313414    1.786537   -0.379133
      9          9           0        0.938164   -3.727957   -0.228155
     10         35           0        2.998886   -1.854472   -0.318245
 ---------------------------------------------------------------------
                    Distance matrix (angstroms):
                    1          2          3          4          5
     1  C    0.000000
     2  C    1.360100   0.000000
     3  H    2.067700   1.101603   0.000000
     4  H    3.550209   3.088712   4.056869   0.000000
     5  H    6.732912   5.506859   5.673455   4.457776   0.000000
     6  H    5.885173   4.538271   4.160865   5.205351   2.746763
     7  Sn   3.188949   2.145930   2.816308   1.731013   3.710485
     8  Sn   5.346785   4.083058   4.120784   3.831848   1.735081
     9  F    1.435471   2.433102   2.554228   4.977212   7.910268
    10  Br   1.955484   3.009055   3.953336   3.435156   7.562130
                    6          7          8          9         10
     6  H    0.000000
     7  Sn   3.730792   0.000000
     8  Sn   1.734905   2.735791   0.000000
     9  F    6.684829   4.508663   6.403530   0.000000
    10  Br   7.333037   3.971542   6.440589   2.786509   0.000000
 Stoichiometry    C2H4BrFSn2
 Framework group  C1[X(C2H4BrFSn2)]
 Deg. of freedom    24
 Full point group                 C1      NOp   1
 Largest Abelian subgroup         C1      NOp   1
 Largest concise Abelian subgroup C1      NOp   1
                         Standard orientation:                         
 ---------------------------------------------------------------------
 Center     Atomic      Atomic             Coordinates (Angstroms)
[...]
     5   1    -0.46   0.51  -0.11    -0.10   0.10  -0.02     0.00   0.00   0.00
     6   1     0.23   0.49   0.36     0.09   0.21   0.16     0.00   0.00   0.00
     7  50     0.00   0.00   0.00     0.00  -0.01   0.00     0.00   0.00   0.00
     8  50     0.00  -0.01   0.00     0.00   0.00   0.00     0.00   0.00   0.00
     9   9     0.00   0.00   0.00     0.00   0.00   0.00     0.00   0.00   0.00
    10  35     0.00   0.00   0.00     0.00   0.00   0.00     0.00   0.00   0.00

 -------------------
 - Thermochemistry -
 -------------------
 Temperature   298.150 Kelvin.  Pressure   1.00000 Atm.
 Atom     1 has atomic number  6 and mass  12.00000
 Atom     2 has atomic number  6 and mass  12.00000
 Atom     3 has atomic number  1 and mass   1.00783
 Atom     4 has atomic number  1 and mass   1.00783
 Atom     5 has atomic number  1 and mass   1.00783
 Atom     6 has atomic number  1 and mass   1.00783
 Atom     7 has atomic number 50 and mass 117.90180
 Atom     8 has atomic number 50 and mass 117.90180
 Atom     9 has atomic number  9 and mass  18.99840
 Atom    10 has atomic number 35 and mass  78.91834
 Molecular mass:   361.75164 amu.
 Principal axes and moments of inertia in atomic units:
                           1         2         3
     Eigenvalues --   869.189758302.679088789.06115
           X            0.99997  -0.00811   0.00151
           Y            0.00803   0.99866   0.05122
           Z           -0.00192  -0.05121   0.99869
 This molecule is an asymmetric top.
 Rotational symmetry number  1.
 Warning -- assumption of classical behavior for rotation
           may cause significant error
 Rotational temperatures (Kelvin)      0.09965     0.01043     0.00985
 Rotational constants (GHZ):           2.07635     0.21737     0.20534
 Zero-point vibrational energy     112167.5 (Joules/Mol)
                                   26.80867 (Kcal/Mol)
 Warning -- explicit consideration of  14 degrees of freedom as
           vibrations may cause significant error
 Vibrational temperatures:     19.66    58.44   113.46   198.55   256.21
          (Kelvin)            299.33   393.09   472.32   483.07   554.09
                              635.59   651.93   690.64   886.34  1039.25
                             1112.49  1184.18  1365.97  1792.27  2252.39
                             2652.16  2665.18  2681.45  4523.20
 
 Zero-point correction=                           0.042722 (Hartree/Particle)
 Thermal correction to Energy=                    0.052701
 Thermal correction to Enthalpy=                  0.053645
 Thermal correction to Gibbs Free Energy=         0.002069
 Sum of electronic and zero-point Energies=           -197.152422
 Sum of electronic and thermal Energies=              -197.142443
 Sum of electronic and thermal Enthalpies=            -197.141499
 Sum of electronic and thermal Free Energies=         -197.193074
 
                     E (Thermal)             CV                S
                      KCal/Mol        Cal/Mol-Kelvin    Cal/Mol-Kelvin
 Total                   33.070             31.810            108.549
 Electronic               0.000              0.000              0.000
 Translational            0.889              2.981             43.551
 Rotational               0.889              2.981             32.517
 Vibrational             31.293             25.848             32.482
 Vibration     1          0.593              1.986              7.391
 Vibration     2          0.594              1.981              5.229
 Vibration     3          0.600              1.963              3.919
 Vibration     4          0.614              1.915              2.831
 Vibration     5          0.629              1.869              2.349
 Vibration     6          0.641              1.828              2.061
 Vibration     7          0.676              1.723              1.576
 Vibration     8          0.712              1.619              1.269
 Vibration     9          0.717              1.604              1.232
 Vibration    10          0.754              1.502              1.019
 Vibration    11          0.802              1.379              0.821
 Vibration    12          0.812              1.354              0.786
 Vibration    13          0.836              1.294              0.710
 Vibration    14          0.976              0.998              0.423
                       Q            Log10(Q)             Ln(Q)
 Total Bot       0.111714D+00         -0.951892         -2.191812
 Total V=0       0.500009D+19         18.698978         43.055988
 Vib (Bot)       0.144895D-15        -15.838947        -36.470523
 Vib (Bot)    1  0.151657D+02          1.180864          2.719039
 Vib (Bot)    2  0.509386D+01          0.707047          1.628035
 Vib (Bot)    3  0.261195D+01          0.416965          0.960096
 Vib (Bot)    4  0.147422D+01          0.168562          0.388127
 Vib (Bot)    5  0.112866D+01          0.052561          0.121027
 Vib (Bot)    6  0.955427D+00         -0.019803         -0.045597
 Vib (Bot)    7  0.706210D+00         -0.151066         -0.347843
 Vib (Bot)    8  0.569768D+00         -0.244302         -0.562527
 Vib (Bot)    9  0.554517D+00         -0.256085         -0.589657
 Vib (Bot)   10  0.467807D+00         -0.329933         -0.759700
 Vib (Bot)   11  0.390778D+00         -0.408070         -0.939615
 Vib (Bot)   12  0.377502D+00         -0.423081         -0.974179
 Vib (Bot)   13  0.348413D+00         -0.457905         -1.054366
 Vib (Bot)   14  0.238382D+00         -0.622726         -1.433880
 Vib (V=0)       0.648520D+04          3.811923          8.777277
 Vib (V=0)    1  0.156740D+02          1.195179          2.752002
 Vib (V=0)    2  0.561834D+01          0.749608          1.726036
 Vib (V=0)    3  0.315937D+01          0.499601          1.150374
 Vib (V=0)    4  0.205670D+01          0.313171          0.721103
 Vib (V=0)    5  0.173445D+01          0.239161          0.550689
 Vib (V=0)    6  0.157835D+01          0.198203          0.456380
 Vib (V=0)    7  0.136529D+01          0.135226          0.311369
 Vib (V=0)    8  0.125805D+01          0.099697          0.229560
 Vib (V=0)    9  0.124665D+01          0.095745          0.220462
 Vib (V=0)   10  0.118472D+01          0.073616          0.169508
 Vib (V=0)   11  0.113459D+01          0.054840          0.126273
 Vib (V=0)   12  0.112650D+01          0.051733          0.119119
 Vib (V=0)   13  0.110942D+01          0.045096          0.103837
 Vib (V=0)   14  0.105392D+01          0.022807          0.052515
 Electronic      0.100000D+01          0.000000          0.000000
 Translational   0.270440D+09          8.432071         19.415561
 Rotational      0.285091D+07          6.454984         14.863150
 ***** Axes restored to original set *****
 -------------------------------------------------------------------
 Center     Atomic                   Forces (Hartrees/Bohr)
 Number     Number              X              Y              Z
 -------------------------------------------------------------------
      1        6           0.000001139    0.000014918    0.000004711
      2        6           0.000000323   -0.000021384    0.000000541
      3        1           0.000008396    0.000004528   -0.000002243
      4        1          -0.000003984    0.000000127   -0.000000300
      5        1           0.000010241   -0.000003360   -0.000000509
      6        1           0.000004051   -0.000000736   -0.000004655
      7       50          -0.000000992   -0.000003682   -0.000004116
      8       50          -0.000011187    0.000003102    0.000005952
      9        9          -0.000001758    0.000010975    0.000000720
     10       35          -0.000006228   -0.000004488   -0.000000101
 -------------------------------------------------------------------
 Cartesian Forces:  Max     0.000021384 RMS     0.000006722

 GradGradGradGradGradGradGradGradGradGradGradGradGradGradGradGradGradGrad
 Berny optimization.
 Internal  Forces:  Max     0.000024252 RMS     0.000008492
 Search for a local minimum.
 Step number   1 out of a maximum of    2
 All quantities printed in internal units (Hartrees-Bohrs-Radians)
 Second derivative matrix not updated -- analytic derivatives used.
     Eigenvalues ---    0.00104   0.00609   0.01058   0.01649   0.02652
     Eigenvalues ---    0.03249   0.04113   0.04979   0.06760   0.07480
     Eigenvalues ---    0.07720   0.09321   0.11152   0.11613   0.12868
     Eigenvalues ---    0.13006   0.13034   0.13476   0.15426   0.19876
     Eigenvalues ---    0.24149   0.30739   0.35068   0.560641000.00000
     Eigenvalues --- 1000.000001000.000001000.000001000.000001000.00000
     Eigenvalues --- 1000.000001000.000001000.00000
 Angle between quadratic step and forces=  61.92 degrees.
 Linear search not attempted -- first point.
 Iteration  1 RMS(Cart)=  0.00111281 RMS(Int)=  0.00000039
 Iteration  2 RMS(Cart)=  0.00000050 RMS(Int)=  0.00000002
 Variable       Old X    -DE/DX   Delta X   Delta X   Delta X     New X
                                 (Linear)    (Quad)   (Total)
    R1        2.57007  -0.00002   0.00000  -0.00003  -0.00003   2.57004
    R2        2.71163  -0.00001   0.00000  -0.00002  -0.00002   2.71161
    R3        3.69529  -0.00001   0.00000  -0.00005  -0.00005   3.69523
    R4        2.08171  -0.00001   0.00000  -0.00004  -0.00004   2.08167
    R5        4.05581  -0.00001   0.00000  -0.00006  -0.00006   4.05575
    R6        3.27204   0.00000   0.00000  -0.00002  -0.00002   3.27202
    R7        3.27982   0.00000   0.00000  -0.00001  -0.00001   3.27981
    R8        3.27974   0.00000   0.00000  -0.00006  -0.00006   3.27968
    R9        5.17344   0.00000   0.00000  -0.00008  -0.00008   5.17335
    A1        2.11078  -0.00001   0.00000  -0.00005  -0.00005   2.11073
    A2        2.26076   0.00001   0.00000   0.00007   0.00007   2.26083
    A3        1.91164   0.00000   0.00000  -0.00001  -0.00001   1.91162
    A4        1.98698   0.00000   0.00000   0.00003   0.00003   1.98701
    A5        2.26413  -0.00001   0.00000  -0.00014  -0.00014   2.26399
    A6        2.03072   0.00001   0.00000   0.00011   0.00011   2.03083
    A7        1.83254  -0.00001   0.00000  -0.00004  -0.00004   1.83250
    A8        1.97457   0.00002   0.00000   0.00064   0.00064   1.97521
    A9        2.02957  -0.00001   0.00000  -0.00031  -0.00031   2.02925
   A10        1.82259   0.00001   0.00000   0.00017   0.00017   1.82277
   A11        1.92301  -0.00002   0.00000  -0.00063  -0.00063   1.92238
   A12        1.93913   0.00000   0.00000   0.00028   0.00028   1.93941
    D1        0.01400   0.00000   0.00000   0.00002   0.00002   0.01402
    D2        3.09698   0.00000   0.00000   0.00001   0.00001   3.09700
    D3       -3.12340   0.00000   0.00000   0.00000   0.00000  -3.12340
    D4       -0.04041   0.00000   0.00000  -0.00001  -0.00001  -0.04042
    D5        0.33361   0.00000   0.00000   0.00057   0.00057   0.33418
    D6        2.56427   0.00000   0.00000   0.00057   0.00057   2.56484
    D7       -2.86781   0.00000   0.00000   0.00056   0.00056  -2.86724
    D8       -0.63715   0.00000   0.00000   0.00056   0.00056  -0.63659
    D9        3.01413   0.00000   0.00000   0.00047   0.00047   3.01461
   D10        1.00286   0.00000   0.00000   0.00048   0.00048   1.00334
   D11       -1.14569   0.00000   0.00000   0.00070   0.00070  -1.14499
   D12        3.12622   0.00000   0.00000   0.00071   0.00071   3.12693
         Item               Value     Threshold  Converged?
 Maximum Force            0.000024     0.000450     YES
 RMS     Force            0.000008     0.000300     YES
 Maximum Displacement     0.002440     0.001800     NO 
 RMS     Displacement     0.001113     0.001200     YES
 Predicted change in Energy=-2.241110D-08
 GradGradGradGradGradGradGradGradGradGradGradGradGradGradGradGradGradGrad

 1\1\GINC-MALLOS73\Freq\RMP2-FC\LANL2DZ\C2H4Br1F1Sn2\MARLIN\24-Oct-2024
 \0\\#N Geom=AllCheck Guess=TCheck SCRF=Check GenChk RMP2(FC)/LANL2DZ F
 req\\Title Card Required\\0,1\C,1.1129297525,-2.3096613615,-0.09664181
 78\C,0.0534097649,-1.5020885605,0.1770418309\H,-0.9005034276,-2.041549
 8722,0.2889960144\H,1.4708699333,1.2185867419,-0.1641396024\H,-2.37263
 30931,3.448203366,0.1011294181\H,-3.707541337,1.0652385935,0.356088967
 \Sn,-0.0056854319,0.6171542129,0.511224473\Sn,-2.3135676263,1.78379884
 65,-0.3873433375\F,0.9433043063,-3.727830055,-0.2346885352\Br,2.995761
 1588,-1.8484509115,-0.3536674104\\Version=EM64L-G09RevA.01\State=1-A\H
 F=-196.7766355\MP2=-197.195144\RMSD=1.195e-09\RMSF=6.722e-06\ZeroPoint
 =0.0427223\Thermal=0.0527006\Dipole=-0.2812213,0.8132429,0.1044855\Dip
 oleDeriv=1.6082873,-0.4526441,-0.1655045,-0.0339164,1.3956518,0.030662
 3,-0.2329509,0.2054488,0.097607,-0.9515935,0.5898007,0.0973937,0.24102
 49,-0.7089421,-0.0076625,0.3584438,-0.3211533,-0.300989,-0.0195627,-0.
 0744253,0.0188667,0.0179403,-0.0368342,0.0100676,0.0448467,-0.0373344,
 0.1780684,-0.30304,-0.0632558,0.0464917,0.0602344,-0.2700981,-0.027548
 2,0.2776546,-0.0730854,-0.0531765,-0.2249122,0.0760371,0.0626499,0.087
 9308,-0.3972152,-0.0034003,0.2620639,-0.2379195,-0.0657774,-0.3673723,
 -0.0247287,0.0734408,0.0020203,-0.2187405,-0.0299652,0.3519678,-0.1097
 982,-0.074545,0.6574813,-0.0845048,-0.1051638,-0.4914169,1.1290816,0.0
 419502,-0.5437503,0.3209869,0.2195045,0.5625531,-0.013569,-0.1354239,-
 0.0526041,0.5543513,0.0350524,-0.6285989,0.3711254,0.1391934,-0.528417
 4,-0.0019616,0.0407705,0.2402607,-1.4037744,-0.0449825,0.0400615,-0.09
 09065,-0.1638311,-0.4334237,0.0492516,0.0664789,-0.0714741,-0.0434803,
 -0.0041739,0.0702619,-0.0273638,0.0239457\Polar=176.4771215,-47.569485
 6,126.1046857,25.3725625,-15.5243821,64.8476428\PG=C01 [X(C2H4Br1F1Sn2
 )]\NImag=0\\0.52249380,-0.15916640,0.44907636,-0.09332364,0.07067113,0
 .10710715,-0.32939268,0.20016573,0.07189829,0.62956219,0.16026392,-0.2
 0296695,-0.04563445,-0.07249799,0.47276715,0.06708391,-0.05318296,-0.0
 5814332,-0.10870199,0.06185600,0.09439078,-0.02494201,-0.01661342,0.00
 379637,-0.25894522,-0.11149591,0.02961100,0.27830732,0.02447659,0.0023
 6691,-0.00476022,-0.13841541,-0.11045610,0.01454307,0.12365086,0.11559
 502,0.00752245,0.00301455,0.00613904,0.02733531,0.01024640,-0.03299810
 ,-0.03274678,-0.01135883,0.02611087,-0.00204031,-0.00074077,0.00012159
 ,0.00130741,-0.00000615,0.00027786,0.00038813,0.00011291,0.00032210,0.
 09930013,-0.00195527,0.00267247,0.00090036,-0.00908194,-0.00248974,0.0
 0415846,0.00109583,-0.00310453,-0.00040564,0.03478006,0.02758189,-0.00
 046526,0.00109509,-0.00006710,-0.00113782,-0.00204048,0.00072518,0.000
 07479,-0.00081137,0.00052196,-0.04081956,-0.01561000,0.02388579,0.0004
 6483,0.00018289,-0.00044404,-0.00219598,0.00018704,-0.00189556,0.00011
 093,-0.00009523,0.00007288,-0.00036292,-0.00018252,-0.00100876,0.01185
 098,-0.00062851,0.00028633,0.00032326,0.00112018,-0.00009908,0.0007546
 2,-0.00005718,0.00010252,-0.00008978,0.00044036,0.00006259,0.00052507,
 -0.00319965,0.12065349,-0.00023203,0.00130766,0.00041538,-0.00153338,-
 0.00015460,0.00085101,0.00013046,-0.00017150,-0.00021014,-0.00101989,0
 .00026860,-0.00101313,-0.00308561,0.03091134,0.01482498,0.00010133,-0.
 00038422,-0.00021489,-0.00036206,0.00030690,-0.00114043,-0.00001896,0.
 00011620,0.00007101,-0.00118157,0.00078447,-0.00180830,0.00094447,0.00
 039275,0.00079707,0.08741258,0.00012908,0.00015871,0.00005489,-0.00039
 127,0.00016326,0.00044325,-0.00008064,0.00009548,0.00002109,0.00078871
 ,-0.00024658,0.00136412,-0.00842291,-0.00375426,0.00472325,0.03980002,
 0.03316828,-0.00093605,0.00083739,0.00011166,0.00000700,-0.00027848,-0
 .00144336,0.00006907,-0.00027451,-0.00004359,-0.00171523,0.00127249,0.
 00068875,-0.00221670,-0.00244565,0.00074259,-0.04151844,-0.02012542,0.
 02680723,0.00388379,0.01449123,0.00166929,-0.02836261,0.00202305,0.006
 09288,0.00237371,-0.01253605,-0.00205134,-0.09911660,-0.02702207,0.047
 92511,0.00337871,-0.00289342,-0.00068407,0.00005336,0.00093411,-0.0029
 4135,0.18678493,0.00287727,-0.01589971,-0.00366838,0.00483396,-0.11261
 418,-0.02122081,0.00384189,-0.00507231,-0.00156325,-0.03333106,-0.0241
 8608,0.01680263,0.00322015,-0.00101550,0.00282042,-0.00380602,0.001309
 30,0.00013449,-0.00337045,0.17491645,0.00117873,-0.00501916,-0.0022392
 2,0.00132667,-0.01199530,-0.01756479,0.00019886,0.00213576,0.00115252,
 0.03583281,0.01318627,-0.02636791,0.00569142,-0.00384462,0.00010264,0.
 00718770,-0.00331785,0.00100721,-0.03156344,-0.00429195,0.05394764,-0.
 00097131,-0.00102760,-0.00005813,0.00419894,-0.00094216,0.00005690,-0.
 00013059,0.00030577,-0.00000766,0.00118288,0.00035263,-0.00261420,-0.0
 1394278,0.00457513,0.00595231,-0.08692792,-0.03276390,0.04915653,-0.06
 382074,0.02731011,-0.01998403,0.15940500,-0.00107974,-0.00069601,0.000
 74690,0.00453281,-0.00110168,0.00189115,-0.00010484,-0.00011499,-0.000
 02072,-0.00354424,0.00162149,-0.00062209,0.00780471,-0.11583164,-0.039
 58239,-0.03774013,-0.03087107,0.02147236,0.02618910,-0.02194201,0.0110
 1793,0.00377495,0.16900005,0.00125733,-0.00292733,-0.00038570,0.004090
 95,-0.00084744,0.00197392,-0.00032661,0.00082596,0.00025304,0.00700510
 ,-0.00297313,0.00162363,0.00235366,-0.02588862,-0.01563000,0.03637344,
 0.01692652,-0.02800971,-0.01937321,0.00923197,-0.01449488,-0.03208750,
 0.00566406,0.05514156,-0.05081343,-0.02734692,0.00051885,0.00391198,0.
 03229711,0.00571908,0.00323915,-0.00000728,-0.00176693,0.00040837,0.00
 044034,-0.00000501,-0.00011087,0.00009616,-0.00025949,0.00002602,-0.00
 003599,0.00008128,-0.00162267,0.00023650,0.00041422,0.00062758,0.00010
 164,0.00041500,0.06046109,-0.00606586,-0.21424665,-0.02153981,-0.00079
 726,-0.04710286,-0.00774908,-0.00161943,0.00109628,0.00100172,-0.00024
 988,-0.00084446,-0.00042042,0.00047923,-0.00038491,-0.00023709,0.00040
 351,0.00003107,-0.00077500,0.00165515,0.00599956,0.00190106,-0.0013923
 4,-0.00039746,0.00064301,0.02179401,0.27338629,0.00308733,-0.01736850,
 -0.03235101,0.00212233,-0.01299911,0.01151828,-0.00214316,0.00103559,-
 0.00678765,-0.00016792,-0.00069575,-0.00024675,0.00054466,-0.00024249,
 -0.00007842,0.00026184,-0.00008636,0.00016948,0.00051748,0.00157133,0.
 00502330,-0.00036783,-0.00059111,-0.00049495,-0.00507837,0.02725363,0.
 01942943,-0.11878401,-0.00956053,0.01603631,-0.01972199,-0.01013579,0.
 00289634,-0.00038246,0.00239164,0.00124896,0.00011449,0.00078848,-0.00
 014100,-0.00013738,0.00015419,-0.00006535,-0.00004725,0.00004278,0.000
 01388,-0.00355188,-0.00181234,-0.00028295,0.00037895,0.00006574,0.0002
 9184,-0.01612721,-0.01420714,0.00122364,0.15825876,-0.01885108,-0.0207
 5146,0.00290632,0.01053119,0.00390017,-0.00149371,0.00138283,-0.000508
 28,-0.00084555,0.00175006,-0.00106706,-0.00028256,0.00002629,-0.000019
 53,0.00011431,0.00012653,-0.00005420,0.00018232,0.00052936,-0.00149553
 ,0.00022784,-0.00019258,0.00033331,-0.00065501,-0.02757557,-0.01753686
 ,0.00212277,0.03227297,0.03719943,0.01482722,0.00157213,-0.02058688,0.
 00459264,0.00184745,0.00069039,0.00133600,-0.00116396,0.00586205,0.000
 16314,-0.00010167,0.00024957,-0.00001195,-0.00000313,-0.00000492,-0.00
 000901,-0.00000349,-0.00003027,0.00040865,0.00018354,-0.00056650,-0.00
 004638,0.00002392,0.00002310,-0.00003864,-0.00007803,0.00381828,-0.021
 22167,-0.00227674,0.01054518\\-0.00000114,-0.00001492,-0.00000471,-0.0
 0000032,0.00002138,-0.00000054,-0.00000840,-0.00000453,0.00000224,0.00
 000398,-0.00000013,0.00000030,-0.00001024,0.00000336,0.00000051,-0.000
 00405,0.00000074,0.00000466,0.00000099,0.00000368,0.00000412,0.0000111
 9,-0.00000310,-0.00000595,0.00000176,-0.00001098,-0.00000072,0.0000062
 3,0.00000449,0.00000010\\\@


 BETTER TO HUNT IN FIELDS, FOR HEALTH UNBOUGHT
 THAN FEE THE DOCTOR FOR A NAUSEOUS DRAUGHT.
 THE WISE, FOR CURE, ON EXERCISE DEPEND;
 GOD NEVER MADE HIS WORK FOR MAN TO MEND.
     -- JOHN DRYDEN (1631-1700)
 Job cpu time:  0 days  0 hours  3 minutes 51.3 seconds.
 File lengths (MBytes):  RWF=    145 Int=      0 D2E=      0 Chk=      1 Scr=      1
 Normal termination of Gaussian 09 at Thu Oct 24 10:23:44 2024.
