 Entering Gaussian System, Link 0=g09
 Initial command:
 /u/local/G09/g09/l1.exe /tmp1/marlin/22838.mallos00.local/Gau-60858.inp -scrdir=/tmp1/marlin/22838.mallos00.local/
 Entering Link 1 = /u/local/G09/g09/l1.exe PID=     60860.
  
 Copyright (c) 1988,1990,1992,1993,1995,1998,2003,2009, Gaussian, Inc.
                  All Rights Reserved.
  
 This is part of the Gaussian(R) 09 program.  It is based on
 the Gaussian(R) 03 system (copyright 2003, Gaussian, Inc.),
 the Gaussian(R) 98 system (copyright 1998, Gaussian, Inc.),
 the Gaussian(R) 94 system (copyright 1995, Gaussian, Inc.),
 the Gaussian 92(TM) system (copyright 1992, Gaussian, Inc.),
 the Gaussian 90(TM) system (copyright 1990, Gaussian, Inc.),
 the Gaussian 88(TM) system (copyright 1988, Gaussian, Inc.),
 the Gaussian 86(TM) system (copyright 1986, Carnegie Mellon
 University), and the Gaussian 82(TM) system (copyright 1983,
 Carnegie Mellon University). Gaussian is a federally registered
 trademark of Gaussian, Inc.
  
 This software contains proprietary and confidential information,
 including trade secrets, belonging to Gaussian, Inc.
  
 This software is provided under written license and may be
 used, copied, transmitted, or stored only in accord with that
 written license.
  
 The following legend is applicable only to US Government
 contracts under FAR:
  
                    RESTRICTED RIGHTS LEGEND
  
 Use, reproduction and disclosure by the US Government is
 subject to restrictions as set forth in subparagraphs (a)
 and (c) of the Commercial Computer Software - Restricted
 Rights clause in FAR 52.227-19.
  
 Gaussian, Inc.
 340 Quinnipiac St., Bldg. 40, Wallingford CT 06492
  
  
 ---------------------------------------------------------------
 Warning -- This program may not be used in any manner that
 competes with the business of Gaussian, Inc. or will provide
 assistance to any competitor of Gaussian, Inc.  The licensee
 of this program is prohibited from giving any competitor of
 Gaussian, Inc. access to this program.  By using this program,
 the user acknowledges that Gaussian, Inc. is engaged in the
 business of creating and licensing software in the field of
 computational chemistry and represents and warrants to the
 licensee that it is not a competitor of Gaussian, Inc. and that
 it will not use this program in any manner prohibited above.
 ---------------------------------------------------------------
  

 Cite this work as:
 Gaussian 09, Revision A.01,
 M. J. Frisch, G. W. Trucks, H. B. Schlegel, G. E. Scuseria, 
 M. A. Robb, J. R. Cheeseman, G. Scalmani, V. Barone, B. Mennucci, 
 G. A. Petersson, H. Nakatsuji, M. Caricato, X. Li, H. P. Hratchian, 
 A. F. Izmaylov, J. Bloino, G. Zheng, J. L. Sonnenberg, M. Hada, 
 M. Ehara, K. Toyota, R. Fukuda, J. Hasegawa, M. Ishida, T. Nakajima, 
 Y. Honda, O. Kitao, H. Nakai, T. Vreven, J. A. Montgomery, Jr., 
 J. E. Peralta, F. Ogliaro, M. Bearpark, J. J. Heyd, E. Brothers, 
 K. N. Kudin, V. N. Staroverov, R. Kobayashi, J. Normand, 
 K. Raghavachari, A. Rendell, J. C. Burant, S. S. Iyengar, J. Tomasi, 
 M. Cossi, N. Rega, J. M. Millam, M. Klene, J. E. Knox, J. B. Cross, 
 V. Bakken, C. Adamo, J. Jaramillo, R. Gomperts, R. E. Stratmann, 
 O. Yazyev, A. J. Austin, R. Cammi, C. Pomelli, J. W. Ochterski, 
 R. L. Martin, K. Morokuma, V. G. Zakrzewski, G. A. Voth, 
 P. Salvador, J. J. Dannenberg, S. Dapprich, A. D. Daniels, 
 O. Farkas, J. B. Foresman, J. V. Ortiz, J. Cioslowski, 
 and D. J. Fox, Gaussian, Inc., Wallingford CT, 2009.
 
 ******************************************
 Gaussian 09:  EM64L-G09RevA.01  8-May-2009
                25-Oct-2024 
 ******************************************
 %mem=103GB
 %nproc=20
 Will use up to   20 processors via shared memory.
 %chk=1-sddmp2.chk
 ----------------------------------------
 # opt freq=noraman mp2/sdd geom=allcheck
 ----------------------------------------
 1/18=20,19=15,29=7,38=1/1,3;
 2/9=110,12=2,40=1/2;
 3/5=17,6=7,11=9,14=-4,16=1,25=1,30=1,71=1/1,2,3;
 4//1;
 5/5=2,38=5/2;
 8/6=4,10=1/1;
 9/15=2,16=-3/6;
 10/5=1/2;
 6/7=2,8=2,9=2,10=2/1;
 7/12=2/1,2,3,16;
 1/18=20,19=15/3(2);
 2/9=110/2;
 99//99;
 2/9=110/2;
 3/5=17,6=7,11=9,14=-2,16=1,25=1,30=1,71=1/1,2,3;
 4/5=5,16=3/1;
 5/5=2,38=5/2;
 8/6=4,10=1/1;
 9/15=2,16=-3/6;
 10/5=1/2;
 7/12=2/1,2,3,16;
 1/18=20,19=15/3(-8);
 2/9=110/2;
 6/7=2,8=2,9=2,10=2/1;
 99//99;
 -------------------
 Title Card Required
 -------------------
 Redundant internal coordinates taken from checkpoint file:
 1-sddmp2.chk
 Charge =  0 Multiplicity = 1
 C,0,1.1155218286,-2.3269321142,-0.0589277329
 C,0,0.0852540615,-1.5138646489,0.0810160591
 H,0,-0.8746456164,-2.0074133031,0.0563507055
 H,0,1.4557779044,1.1794284923,-0.3708371098
 H,0,-2.4200545368,3.4412711402,0.1284295855
 H,0,-3.7077631438,1.1177519848,0.533818704
 Sn,0,0.0461518043,0.6182710155,0.4403464234
 Sn,0,-2.3657537647,1.7772768462,-0.3319865019
 F,0,0.9572514202,-3.6846504056,-0.2351411987
 Br,0,2.9846040427,-1.8977380071,-0.0450689342
 Recover connectivity data from disk.

 GradGradGradGradGradGradGradGradGradGradGradGradGradGradGradGradGradGrad
 Berny optimization.
 Initialization pass.
                           ----------------------------
                           !    Initial Parameters    !
                           ! (Angstroms and Degrees)  !
 --------------------------                            --------------------------
 ! Name  Definition              Value          Derivative Info.                !
 --------------------------------------------------------------------------------
 ! R1    R(1,2)                  1.3199         estimate D2E/DX2                !
 ! R2    R(1,9)                  1.3782         estimate D2E/DX2                !
 ! R3    R(1,10)                 1.9178         estimate D2E/DX2                !
 ! R4    R(2,3)                  1.0796         estimate D2E/DX2                !
 ! R5    R(2,7)                  2.1626         estimate D2E/DX2                !
 ! R6    R(4,7)                  1.7205         estimate D2E/DX2                !
 ! R7    R(5,8)                  1.7274         estimate D2E/DX2                !
 ! R8    R(6,8)                  1.7279         estimate D2E/DX2                !
 ! R9    R(7,8)                  2.7852         estimate D2E/DX2                !
 ! A1    A(2,1,9)              122.0571         estimate D2E/DX2                !
 ! A2    A(2,1,10)             128.4713         estimate D2E/DX2                !
 ! A3    A(9,1,10)             109.47           estimate D2E/DX2                !
 ! A4    A(1,2,3)              114.2033         estimate D2E/DX2                !
 ! A5    A(1,2,7)              129.723          estimate D2E/DX2                !
 ! A6    A(3,2,7)              116.004          estimate D2E/DX2                !
 ! A7    A(2,7,4)              103.2042         estimate D2E/DX2                !
 ! A8    A(2,7,8)              112.3253         estimate D2E/DX2                !
 ! A9    A(4,7,8)              116.2989         estimate D2E/DX2                !
 ! A10   A(5,8,6)              102.1058         estimate D2E/DX2                !
 ! A11   A(5,8,7)              110.7431         estimate D2E/DX2                !
 ! A12   A(6,8,7)              112.0122         estimate D2E/DX2                !
 ! D1    D(9,1,2,3)              0.6794         estimate D2E/DX2                !
 ! D2    D(9,1,2,7)            177.4802         estimate D2E/DX2                !
 ! D3    D(10,1,2,3)          -178.7987         estimate D2E/DX2                !
 ! D4    D(10,1,2,7)            -1.9978         estimate D2E/DX2                !
 ! D5    D(1,2,7,4)             32.0623         estimate D2E/DX2                !
 ! D6    D(1,2,7,8)            158.0995         estimate D2E/DX2                !
 ! D7    D(3,2,7,4)           -151.1844         estimate D2E/DX2                !
 ! D8    D(3,2,7,8)            -25.1472         estimate D2E/DX2                !
 ! D9    D(2,7,8,5)            173.8356         estimate D2E/DX2                !
 ! D10   D(2,7,8,6)             60.5698         estimate D2E/DX2                !
 ! D11   D(4,7,8,5)            -67.5844         estimate D2E/DX2                !
 ! D12   D(4,7,8,6)            179.1498         estimate D2E/DX2                !
 --------------------------------------------------------------------------------
 Trust Radius=3.00D-01 FncErr=1.00D-07 GrdErr=1.00D-07
 Number of steps in this run=  43 maximum allowed number of steps= 100.
 GradGradGradGradGradGradGradGradGradGradGradGradGradGradGradGradGradGrad

                          Input orientation:                          
 ---------------------------------------------------------------------
 Center     Atomic      Atomic             Coordinates (Angstroms)
 Number     Number       Type             X           Y           Z
 ---------------------------------------------------------------------
      1          6           0        1.115522   -2.326932   -0.058928
      2          6           0        0.085254   -1.513865    0.081016
      3          1           0       -0.874646   -2.007413    0.056351
      4          1           0        1.455778    1.179428   -0.370837
      5          1           0       -2.420055    3.441271    0.128430
      6          1           0       -3.707763    1.117752    0.533819
      7         50           0        0.046152    0.618271    0.440346
      8         50           0       -2.365754    1.777277   -0.331987
      9          9           0        0.957251   -3.684650   -0.235141
     10         35           0        2.984604   -1.897738   -0.045069
 ---------------------------------------------------------------------
                    Distance matrix (angstroms):
                    1          2          3          4          5
     1  C    0.000000
     2  C    1.319892   0.000000
     3  H    2.018947   1.079632   0.000000
     4  H    3.536612   3.055542   3.971061   0.000000
     5  H    6.768129   5.552674   5.664066   4.515227   0.000000
     6  H    5.956616   4.638687   4.245137   5.242553   2.687243
     7  Sn   3.172861   2.162556   2.808832   1.720454   3.761488
     8  Sn   5.388726   4.124272   4.086330   3.868208   1.727370
     9  F    1.378223   2.360645   2.500788   4.891442   7.894120
    10  Br   1.917777   2.927369   3.862140   3.451433   7.599043
                    6          7          8          9         10
     6  H    0.000000
     7  Sn   3.788152   0.000000
     8  Sn   1.727883   2.785154   0.000000
     9  F    6.739193   4.449890   6.394090   0.000000
    10  Br   7.363156   3.898773   6.497260   2.709122   0.000000
 Stoichiometry    C2H4BrFSn2
 Framework group  C1[X(C2H4BrFSn2)]
 Deg. of freedom    24
 Full point group                 C1      NOp   1
 Largest Abelian subgroup         C1      NOp   1
 Largest concise Abelian subgroup C1      NOp   1
                         Standard orientation:                         
 ---------------------------------------------------------------------
 Center     Atomic      Atomic             Coordinates (Angstroms)
 Number     Number       Type             X           Y           Z
 ---------------------------------------------------------------------
      1          6           0       -2.369749    1.041700    0.080768
      2          6           0       -1.062469    1.060314    0.261837
      3          1           0       -0.655878    2.042241    0.451860
      4          1           0       -0.334479   -1.725308   -0.761234
      5          1           0        4.064804   -1.055473    0.003559
      6          1           0        3.516221    1.411344    0.917420
      7         50           0        0.347553   -0.578149    0.324501
      8         50           0        2.950951    0.244856   -0.225101
      9          9           0       -3.130135    2.190508    0.120184
     10         35           0       -3.507182   -0.466708   -0.249111
 ---------------------------------------------------------------------
 Rotational constants (GHZ):      2.3245739      0.2165773      0.2022135
 Standard basis: SDD (6D, 10F)
 There are    65 symmetry adapted basis functions of A   symmetry.
 Integral buffers will be    131072 words long.
 Raffenetti 1 integral format.
 Two-electron integral symmetry is turned on.
    65 basis functions,   139 primitive gaussians,    65 cartesian basis functions
    20 alpha electrons       20 beta electrons
       nuclear repulsion energy       133.7596774654 Hartrees.
 NAtoms=   10 NActive=   10 NUniq=   10 SFac= 7.50D-01 NAtFMM=   80 NAOKFM=F Big=F
 One-electron integrals computed using PRISM.
   1 Symmetry operations used in ECPInt.
 ECPInt:  NShTT=     780 NPrTT=    3579 LenC2=     767 LenP2D=    2833.
 LDataN:  DoStor=T MaxTD1= 5 Len=  102
 NBasis=    65 RedAO= T  NBF=    65
 NBsUse=    65 1.00D-06 NBFU=    65
 Harris functional with IExCor=  205 diagonalized for initial guess.
 ExpMin= 3.61D-02 ExpMax= 9.99D+03 ExpMxC= 1.51D+03 IAcc=3 IRadAn=         0 AccDes= 0.00D+00
 HarFok:  IExCor=  205 AccDes= 0.00D+00 IRadAn=         0 IDoV= 1
 ScaDFX=  1.000000  1.000000  1.000000  1.000000
 Defaulting to unpruned grid for atomic number  50.
 Defaulting to unpruned grid for atomic number  50.
 Defaulting to unpruned grid for atomic number  50.
 Defaulting to unpruned grid for atomic number  50.
 Defaulting to unpruned grid for atomic number  50.
 Defaulting to unpruned grid for atomic number  50.
 Defaulting to unpruned grid for atomic number  50.
 Defaulting to unpruned grid for atomic number  50.
 Defaulting to unpruned grid for atomic number  50.
 Defaulting to unpruned grid for atomic number  50.
 Defaulting to unpruned grid for atomic number  50.
 Defaulting to unpruned grid for atomic number  50.
 Defaulting to unpruned grid for atomic number  50.
 Defaulting to unpruned grid for atomic number  50.
 Defaulting to unpruned grid for atomic number  50.
 Defaulting to unpruned grid for atomic number  50.
 Defaulting to unpruned grid for atomic number  50.
 Defaulting to unpruned grid for atomic number  50.
 Defaulting to unpruned grid for atomic number  50.
 Defaulting to unpruned grid for atomic number  50.
 FoFCou: FMM=F IPFlag=           0 FMFlag=      100000 FMFlg1=           0
         NFxFlg=           0 DoJE=T BraDBF=F KetDBF=T FulRan=T
         Omega=  0.000000  0.000000  1.000000  0.000000  0.000000 ICntrl=     500 IOpCl=  0
         NMat0=    1 NMatS0=    1 NMatT0=    0 NMatD0=    1 NMtDS0=    0 NMtDT0=    0
         I1Cent=           4 NGrid=           0.
 Petite list used in FoFCou.
 Initial guess orbital symmetries:
       Occupied  (A) (A) (A) (A) (A) (A) (A) (A) (A) (A) (A) (A)
                 (A) (A) (A) (A) (A) (A) (A) (A)
       Virtual   (A) (A) (A) (A) (A) (A) (A) (A) (A) (A) (A) (A)
                 (A) (A) (A) (A) (A) (A) (A) (A) (A) (A) (A) (A)
                 (A) (A) (A) (A) (A) (A) (A) (A) (A) (A) (A) (A)
                 (A) (A) (A) (A) (A) (A) (A) (A) (A)
 The electronic state of the initial guess is 1-A.
 Requested convergence on RMS density matrix=1.00D-08 within 128 cycles.
 Requested convergence on MAX density matrix=1.00D-06.
 Requested convergence on             energy=1.00D-06.
 No special actions if energy rises.
 Keep R1 ints in memory in canonical form, NReq=3134234.
 SCF Done:  E(RHF) =  -196.997450765     A.U. after   15 cycles
             Convg  =    0.5549D-08             -V/T =  2.0700
 ExpMin= 3.61D-02 ExpMax= 9.99D+03 ExpMxC= 1.51D+03 IAcc=3 IRadAn=         5 AccDes= 0.00D+00
 HarFok:  IExCor=  205 AccDes= 0.00D+00 IRadAn=         5 IDoV=-2
 ScaDFX=  1.000000  1.000000  1.000000  1.000000
 Defaulting to unpruned grid for atomic number  50.
 Defaulting to unpruned grid for atomic number  50.
 Defaulting to unpruned grid for atomic number  50.
 Defaulting to unpruned grid for atomic number  50.
 Defaulting to unpruned grid for atomic number  50.
 Defaulting to unpruned grid for atomic number  50.
 Defaulting to unpruned grid for atomic number  50.
 Defaulting to unpruned grid for atomic number  50.
 Defaulting to unpruned grid for atomic number  50.
 Defaulting to unpruned grid for atomic number  50.
 Defaulting to unpruned grid for atomic number  50.
 Defaulting to unpruned grid for atomic number  50.
 Defaulting to unpruned grid for atomic number  50.
 Defaulting to unpruned grid for atomic number  50.
 Defaulting to unpruned grid for atomic number  50.
 Defaulting to unpruned grid for atomic number  50.
 Defaulting to unpruned grid for atomic number  50.
 Defaulting to unpruned grid for atomic number  50.
 Defaulting to unpruned grid for atomic number  50.
 Defaulting to unpruned grid for atomic number  50.
 Range of M.O.s used for correlation:     4    65
 NBasis=    65 NAE=    20 NBE=    20 NFC=     3 NFV=     0
 NROrb=     62 NOA=    17 NOB=    17 NVA=    45 NVB=    45
 Fully direct method using O(ONN) memory.
 JobTyp=1 Pass  1:  I=   4 to  20 NPSUse= 20 ParTrn=T ParDer=T DoDerP=T.
 Spin components of T(2) and E(2):
     alpha-alpha T2 =       0.2092864403D-01 E2=     -0.4610521429D-01
     alpha-beta  T2 =       0.1591917823D+00 E2=     -0.3137843611D+00
     beta-beta   T2 =       0.2092864403D-01 E2=     -0.4610521429D-01
 ANorm=    0.1095923843D+01
 E2 =    -0.4059947897D+00 EUMP2 =    -0.19740344555458D+03
          IDoAtm=1111111111
          Differentiating once with respect to electric field.
                with respect to dipole field.
          Differentiating once with respect to nuclear coordinates.
          Keep R1 ints in memory in canonical form, NReq=3102463.
          There are     1 degrees of freedom in the 1st order CPHF.  IDoFFX=0.
 LinEq1:  Iter=  0 NonCon=     1 RMS=8.80D-03 Max=8.97D-02
 AX will form     1 AO Fock derivatives at one time.
 LinEq1:  Iter=  1 NonCon=     1 RMS=3.28D-03 Max=3.02D-02
 LinEq1:  Iter=  2 NonCon=     1 RMS=1.07D-03 Max=1.32D-02
 LinEq1:  Iter=  3 NonCon=     1 RMS=2.29D-04 Max=2.32D-03
 LinEq1:  Iter=  4 NonCon=     1 RMS=7.79D-05 Max=6.33D-04
 LinEq1:  Iter=  5 NonCon=     1 RMS=2.53D-05 Max=2.49D-04
 LinEq1:  Iter=  6 NonCon=     1 RMS=6.83D-06 Max=4.42D-05
 LinEq1:  Iter=  7 NonCon=     1 RMS=2.86D-06 Max=2.81D-05
 LinEq1:  Iter=  8 NonCon=     1 RMS=7.47D-07 Max=7.42D-06
 LinEq1:  Iter=  9 NonCon=     1 RMS=1.42D-07 Max=2.03D-06
 LinEq1:  Iter= 10 NonCon=     1 RMS=2.67D-08 Max=2.86D-07
 LinEq1:  Iter= 11 NonCon=     1 RMS=5.11D-09 Max=7.69D-08
 LinEq1:  Iter= 12 NonCon=     1 RMS=1.19D-09 Max=1.05D-08
 LinEq1:  Iter= 13 NonCon=     1 RMS=3.42D-10 Max=3.24D-09
 LinEq1:  Iter= 14 NonCon=     0 RMS=4.78D-11 Max=2.94D-10
 Linear equations converged to 1.000D-10 1.000D-09 after    14 iterations.
 End of Minotr Frequency-dependent properties file   721 does not exist.
 End of Minotr Frequency-dependent properties file   722 does not exist.

 **********************************************************************

            Population analysis using the SCF density.

 **********************************************************************

 Orbital symmetries:
       Occupied  (A) (A) (A) (A) (A) (A) (A) (A) (A) (A) (A) (A)
                 (A) (A) (A) (A) (A) (A) (A) (A)
       Virtual   (A) (A) (A) (A) (A) (A) (A) (A) (A) (A) (A) (A)
                 (A) (A) (A) (A) (A) (A) (A) (A) (A) (A) (A) (A)
                 (A) (A) (A) (A) (A) (A) (A) (A) (A) (A) (A) (A)
                 (A) (A) (A) (A) (A) (A) (A) (A) (A)
 The electronic state is 1-A.
 Alpha  occ. eigenvalues --  -26.31979 -11.40843 -11.26870  -1.63592  -1.12499
 Alpha  occ. eigenvalues --   -1.03393  -0.80575  -0.71423  -0.70246  -0.69962
 Alpha  occ. eigenvalues --   -0.67166  -0.61589  -0.53768  -0.48295  -0.46028
 Alpha  occ. eigenvalues --   -0.44346  -0.44139  -0.39826  -0.39009  -0.28105
 Alpha virt. eigenvalues --   -0.03132   0.08512   0.08626   0.09750   0.10895
 Alpha virt. eigenvalues --    0.11818   0.13305   0.14791   0.15803   0.18354
 Alpha virt. eigenvalues --    0.23058   0.27012   0.34577   0.39101   0.45669
 Alpha virt. eigenvalues --    0.47762   0.48717   0.48870   0.50280   0.51728
 Alpha virt. eigenvalues --    0.53463   0.56708   0.60901   0.61929   0.62702
 Alpha virt. eigenvalues --    0.62837   0.63754   0.82201   0.88972   1.10049
 Alpha virt. eigenvalues --    1.16773   1.18216   1.22832   1.27266   1.29196
 Alpha virt. eigenvalues --    1.33135   1.38027   1.48389   2.28267   7.78733
 Alpha virt. eigenvalues --   12.01005  13.56456  23.66421  24.03850  55.16878
          Condensed to atoms (all electrons):
              1          2          3          4          5          6
     1  C    5.130500   0.323932  -0.020823   0.001153   0.000000   0.000003
     2  C    0.323932   5.889371   0.358911  -0.026934   0.000065   0.000187
     3  H   -0.020823   0.358911   0.446084   0.000062   0.000000   0.000010
     4  H    0.001153  -0.026934   0.000062   0.842584   0.000019   0.000009
     5  H    0.000000   0.000065   0.000000   0.000019   0.857107  -0.011779
     6  H    0.000003   0.000187   0.000010   0.000009  -0.011779   0.858375
     7  Sn  -0.058905   0.213767  -0.016356   0.360011  -0.008494  -0.010449
     8  Sn  -0.000583  -0.021738  -0.000756  -0.009745   0.337132   0.338250
     9  F    0.165063  -0.037322  -0.004556  -0.000004   0.000000   0.000000
    10  Br   0.294834  -0.122945   0.003801  -0.001332   0.000003   0.000003
              7          8          9         10
     1  C   -0.058905  -0.000583   0.165063   0.294834
     2  C    0.213767  -0.021738  -0.037322  -0.122945
     3  H   -0.016356  -0.000756  -0.004556   0.003801
     4  H    0.360011  -0.009745  -0.000004  -0.001332
     5  H   -0.008494   0.337132   0.000000   0.000003
     6  H   -0.010449   0.338250   0.000000   0.000003
     7  Sn   2.693130   0.246314   0.001896  -0.007500
     8  Sn   0.246314   2.767096  -0.000015  -0.000760
     9  F    0.001896  -0.000015   9.246128  -0.055907
    10  Br  -0.007500  -0.000760  -0.055907   6.812585
 Mulliken atomic charges:
              1
     1  C    0.164825
     2  C   -0.577294
     3  H    0.233622
     4  H   -0.165822
     5  H   -0.174054
     6  H   -0.174608
     7  Sn   0.586588
     8  Sn   0.344806
     9  F   -0.315283
    10  Br   0.077220
 Sum of Mulliken atomic charges =   0.00000
 Mulliken charges with hydrogens summed into heavy atoms:
              1
     1  C    0.164825
     2  C   -0.343672
     7  Sn   0.420766
     8  Sn  -0.003856
     9  F   -0.315283
    10  Br   0.077220
 Sum of Mulliken charges with hydrogens summed into heavy atoms =   0.00000
 Electronic spatial extent (au):  <R**2>=           1418.2841
 Charge=              0.0000 electrons
 Dipole moment (field-independent basis, Debye):
    X=              2.4357    Y=             -1.0655    Z=              0.0988  Tot=              2.6604
 Quadrupole moment (field-independent basis, Debye-Ang):
   XX=            -75.6741   YY=            -69.5359   ZZ=            -69.0429
   XY=              7.6966   XZ=             -4.1833   YZ=             -1.0378
 Traceless Quadrupole moment (field-independent basis, Debye-Ang):
   XX=             -4.2565   YY=              1.8817   ZZ=              2.3747
   XY=              7.6966   XZ=             -4.1833   YZ=             -1.0378
 Octapole moment (field-independent basis, Debye-Ang**2):
  XXX=            118.5899  YYY=            -41.5176  ZZZ=             -2.7036  XYY=             37.9752
  XXY=            -27.0416  XXZ=            -18.1881  XZZ=             25.9666  YZZ=            -11.2803
  YYZ=             -0.2078  XYZ=             -1.3546
 Hexadecapole moment (field-independent basis, Debye-Ang**3):
 XXXX=          -2858.5516 YYYY=           -458.8943 ZZZZ=           -165.0009 XXXY=            205.8327
 XXXZ=            -74.3356 YYYX=            111.3999 YYYZ=            -16.5342 ZZZX=            -19.2008
 ZZZY=            -14.2180 XXYY=           -588.1060 XXZZ=           -494.2508 YYZZ=           -101.6955
 XXYZ=            -16.0680 YYXZ=             -8.6762 ZZXY=             20.8243
 N-N= 1.337596774654D+02 E-N=-7.247472876386D+02  KE= 1.841060905927D+02
   1 Symmetry operations used in ECPInt.
 ECPInt:  NShTT=     780 NPrTT=    3579 LenC2=     767 LenP2D=    2833.
 LDataN:  DoStor=T MaxTD1= 6 Len=  172
 Calling FoFJK, ICntrl=      2127 FMM=F ISym2X=0 I1Cent= 0 IOpClX= 0 NMat=1 NMatS=1 NMatT=0.
 ***** Axes restored to original set *****
 -------------------------------------------------------------------
 Center     Atomic                   Forces (Hartrees/Bohr)
 Number     Number              X              Y              Z
 -------------------------------------------------------------------
      1        6           0.028035593    0.002630008   -0.000375979
      2        6          -0.024502660    0.032656170    0.004859024
      3        1          -0.013709210   -0.006339948    0.000136708
      4        1           0.003830772    0.002463824   -0.002064719
      5        1           0.000925472    0.004221854    0.000351150
      6        1          -0.002741906   -0.002796278    0.001522863
      7       50          -0.007958064    0.003314654    0.000901578
      8       50           0.006521251   -0.003525170   -0.000544927
      9        9          -0.004789798   -0.036948445   -0.005037488
     10       35           0.014388550    0.004323331    0.000251791
 -------------------------------------------------------------------
 Cartesian Forces:  Max     0.036948445 RMS     0.012305507

 GradGradGradGradGradGradGradGradGradGradGradGradGradGradGradGradGradGrad
 Berny optimization.
 Internal  Forces:  Max     0.048400813 RMS     0.011456333
 Search for a local minimum.
 Step number   1 out of a maximum of   43
 All quantities printed in internal units (Hartrees-Bohrs-Radians)
 Mixed Optimization -- RFO/linear search
 Second derivative matrix not updated -- first step.
     Eigenvalues ---    0.00230   0.00230   0.01673   0.03076   0.03148
     Eigenvalues ---    0.03149   0.05137   0.07174   0.12059   0.12059
     Eigenvalues ---    0.12064   0.12073   0.12270   0.15990   0.16000
     Eigenvalues ---    0.16000   0.17409   0.22004   0.23281   0.25000
     Eigenvalues ---    0.25000   0.36039   0.49428   0.619581000.00000
     Eigenvalues --- 1000.000001000.000001000.000001000.000001000.00000
     Eigenvalues --- 1000.000001000.000001000.00000
 RFO step:  Lambda=-9.44951950D-03 EMin= 2.30000000D-03
 Linear search not attempted -- first point.
 Iteration  1 RMS(Cart)=  0.03912159 RMS(Int)=  0.00017739
 Iteration  2 RMS(Cart)=  0.00029781 RMS(Int)=  0.00001048
 Iteration  3 RMS(Cart)=  0.00000004 RMS(Int)=  0.00001048
 Variable       Old X    -DE/DX   Delta X   Delta X   Delta X     New X
                                 (Linear)    (Quad)   (Total)
    R1        2.49423   0.04840   0.00000   0.07694   0.07694   2.57118
    R2        2.60446   0.03759   0.00000   0.07463   0.07463   2.67909
    R3        3.62407   0.01499   0.00000   0.08168   0.08168   3.70576
    R4        2.04021   0.01508   0.00000   0.04079   0.04079   2.08099
    R5        4.08664   0.00364   0.00000   0.02803   0.02803   4.11466
    R6        3.25119   0.00492   0.00000   0.03720   0.03720   3.28839
    R7        3.26426   0.00413   0.00000   0.03174   0.03174   3.29599
    R8        3.26523   0.00396   0.00000   0.03045   0.03045   3.29568
    R9        5.26318  -0.00532   0.00000  -0.06549  -0.06549   5.19769
    A1        2.13030   0.00040   0.00000   0.00155   0.00155   2.13185
    A2        2.24225  -0.00202   0.00000  -0.00777  -0.00777   2.23448
    A3        1.91061   0.00162   0.00000   0.00625   0.00625   1.91686
    A4        1.99322   0.00108   0.00000   0.00575   0.00575   1.99897
    A5        2.26409  -0.00074   0.00000  -0.00323  -0.00323   2.26087
    A6        2.02465  -0.00034   0.00000  -0.00262  -0.00262   2.02203
    A7        1.80125   0.00159   0.00000   0.01483   0.01483   1.81608
    A8        1.96045  -0.00058   0.00000  -0.00037  -0.00038   1.96007
    A9        2.02980  -0.00082   0.00000  -0.00356  -0.00359   2.02621
   A10        1.78208   0.00239   0.00000   0.02347   0.02346   1.80554
   A11        1.93283  -0.00094   0.00000  -0.00094  -0.00095   1.93189
   A12        1.95498  -0.00131   0.00000  -0.00325  -0.00326   1.95172
    D1        0.01186   0.00032   0.00000   0.00787   0.00788   0.01973
    D2        3.09761   0.00024   0.00000   0.00559   0.00559   3.10321
    D3       -3.12063   0.00005   0.00000   0.00133   0.00133  -3.11930
    D4       -0.03487  -0.00003   0.00000  -0.00095  -0.00095  -0.03582
    D5        0.55959   0.00000   0.00000  -0.01509  -0.01511   0.54448
    D6        2.75936  -0.00027   0.00000  -0.00962  -0.00961   2.74975
    D7       -2.63866  -0.00004   0.00000  -0.01718  -0.01720  -2.65586
    D8       -0.43890  -0.00032   0.00000  -0.01172  -0.01170  -0.45060
    D9        3.03400   0.00025   0.00000   0.00270   0.00271   3.03671
   D10        1.05714  -0.00136   0.00000  -0.02364  -0.02364   1.03350
   D11       -1.17957   0.00131   0.00000   0.01960   0.01960  -1.15997
   D12        3.12675  -0.00029   0.00000  -0.00673  -0.00675   3.12000
         Item               Value     Threshold  Converged?
 Maximum Force            0.048401     0.000450     NO 
 RMS     Force            0.011456     0.000300     NO 
 Maximum Displacement     0.110955     0.001800     NO 
 RMS     Displacement     0.039208     0.001200     NO 
 Predicted change in Energy=-4.871306D-03
 GradGradGradGradGradGradGradGradGradGradGradGradGradGradGradGradGradGrad

                          Input orientation:                          
 ---------------------------------------------------------------------
 Center     Atomic      Atomic             Coordinates (Angstroms)
 Number     Number       Type             X           Y           Z
 ---------------------------------------------------------------------
      1          6           0        1.124802   -2.346160   -0.060143
      2          6           0        0.061467   -1.510460    0.088787
      3          1           0       -0.919096   -2.011478    0.076415
      4          1           0        1.452840    1.222308   -0.364309
      5          1           0       -2.403055    3.465976    0.125578
      6          1           0       -3.710643    1.092818    0.521790
      7         50           0        0.025679    0.637835    0.441722
      8         50           0       -2.353502    1.782788   -0.328879
      9          9           0        0.966594   -3.743365   -0.240986
     10         35           0        3.031257   -1.886861   -0.061977
 ---------------------------------------------------------------------
                    Distance matrix (angstroms):
                    1          2          3          4          5
     1  C    0.000000
     2  C    1.360609   0.000000
     3  H    2.075615   1.101215   0.000000
     4  H    3.596400   3.099877   4.034562   0.000000
     5  H    6.801559   5.553390   5.675126   4.487980   0.000000
     6  H    5.962109   4.603625   4.198542   5.240563   2.738367
     7  Sn   3.219342   2.177387   2.836354   1.740139   3.741268
     8  Sn   5.405463   4.105119   4.076548   3.847549   1.744164
     9  F    1.417715   2.431846   2.579923   4.990948   7.966399
    10  Br   1.961002   2.997343   3.954740   3.499962   7.630189
                    6          7          8          9         10
     6  H    0.000000
     7  Sn   3.764775   0.000000
     8  Sn   1.743998   2.750499   0.000000
     9  F    6.771045   4.532805   6.447413   0.000000
    10  Br   7.394085   3.957435   6.521747   2.782353   0.000000
 Stoichiometry    C2H4BrFSn2
 Framework group  C1[X(C2H4BrFSn2)]
 Deg. of freedom    24
 Full point group                 C1      NOp   1
 Largest Abelian subgroup         C1      NOp   1
 Largest concise Abelian subgroup C1      NOp   1
                         Standard orientation:                         
 ---------------------------------------------------------------------
 Center     Atomic      Atomic             Coordinates (Angstroms)
 Number     Number       Type             X           Y           Z
 ---------------------------------------------------------------------
      1          6           0       -2.388037    1.059804    0.080521
      2          6           0       -1.040486    1.083487    0.267081
      3          1           0       -0.623006    2.084220    0.459226
      4          1           0       -0.305351   -1.757084   -0.732905
      5          1           0        4.069710   -1.073702   -0.002296
      6          1           0        3.506563    1.455744    0.882814
      7         50           0        0.378467   -0.566601    0.336312
      8         50           0        2.945552    0.239543   -0.234170
      9          9           0       -3.174335    2.239144    0.108910
     10         35           0       -3.534535   -0.496238   -0.250850
 ---------------------------------------------------------------------
 Rotational constants (GHZ):      2.2486739      0.2146320      0.2001517
 Standard basis: SDD (6D, 10F)
 There are    65 symmetry adapted basis functions of A   symmetry.
 Integral buffers will be    131072 words long.
 Raffenetti 1 integral format.
 Two-electron integral symmetry is turned on.
    65 basis functions,   139 primitive gaussians,    65 cartesian basis functions
    20 alpha electrons       20 beta electrons
       nuclear repulsion energy       131.1253687170 Hartrees.
 NAtoms=   10 NActive=   10 NUniq=   10 SFac= 7.50D-01 NAtFMM=   80 NAOKFM=F Big=F
 One-electron integrals computed using PRISM.
   1 Symmetry operations used in ECPInt.
 ECPInt:  NShTT=     780 NPrTT=    3579 LenC2=     767 LenP2D=    2825.
 LDataN:  DoStor=T MaxTD1= 5 Len=  102
 NBasis=    65 RedAO= T  NBF=    65
 NBsUse=    65 1.00D-06 NBFU=    65
 Initial guess read from the read-write file.
 B after Tr=     0.000000    0.000000    0.000000
         Rot=    1.000000    0.000000    0.000000    0.000000 Ang=   0.00 deg.
 Initial guess orbital symmetries:
       Occupied  (A) (A) (A) (A) (A) (A) (A) (A) (A) (A) (A) (A)
                 (A) (A) (A) (A) (A) (A) (A) (A)
       Virtual   (A) (A) (A) (A) (A) (A) (A) (A) (A) (A) (A) (A)
                 (A) (A) (A) (A) (A) (A) (A) (A) (A) (A) (A) (A)
                 (A) (A) (A) (A) (A) (A) (A) (A) (A) (A) (A) (A)
                 (A) (A) (A) (A) (A) (A) (A) (A) (A)
 Harris functional with IExCor=  205 diagonalized for initial guess.
 ExpMin= 3.61D-02 ExpMax= 9.99D+03 ExpMxC= 1.51D+03 IAcc=3 IRadAn=         0 AccDes= 0.00D+00
 HarFok:  IExCor=  205 AccDes= 0.00D+00 IRadAn=         0 IDoV= 1
 ScaDFX=  1.000000  1.000000  1.000000  1.000000
 Defaulting to unpruned grid for atomic number  50.
 Defaulting to unpruned grid for atomic number  50.
 Defaulting to unpruned grid for atomic number  50.
 Defaulting to unpruned grid for atomic number  50.
 Defaulting to unpruned grid for atomic number  50.
 Defaulting to unpruned grid for atomic number  50.
 Defaulting to unpruned grid for atomic number  50.
 Defaulting to unpruned grid for atomic number  50.
 Defaulting to unpruned grid for atomic number  50.
 Defaulting to unpruned grid for atomic number  50.
 Defaulting to unpruned grid for atomic number  50.
 Defaulting to unpruned grid for atomic number  50.
 Defaulting to unpruned grid for atomic number  50.
 Defaulting to unpruned grid for atomic number  50.
 Defaulting to unpruned grid for atomic number  50.
 Defaulting to unpruned grid for atomic number  50.
 Defaulting to unpruned grid for atomic number  50.
 Defaulting to unpruned grid for atomic number  50.
 Defaulting to unpruned grid for atomic number  50.
 Defaulting to unpruned grid for atomic number  50.
 FoFCou: FMM=F IPFlag=           0 FMFlag=      100000 FMFlg1=           0
         NFxFlg=           0 DoJE=T BraDBF=F KetDBF=T FulRan=T
         Omega=  0.000000  0.000000  1.000000  0.000000  0.000000 ICntrl=     500 IOpCl=  0
         NMat0=    1 NMatS0=    1 NMatT0=    0 NMatD0=    1 NMtDS0=    0 NMtDT0=    0
         I1Cent=           4 NGrid=           0.
 Petite list used in FoFCou.
 Requested convergence on RMS density matrix=1.00D-08 within 128 cycles.
 Requested convergence on MAX density matrix=1.00D-06.
 Requested convergence on             energy=1.00D-06.
 No special actions if energy rises.
 Keep R1 ints in memory in canonical form, NReq=3134234.
 SCF Done:  E(RHF) =  -196.992648746     A.U. after   13 cycles
             Convg  =    0.4627D-08             -V/T =  2.0718
 ExpMin= 3.61D-02 ExpMax= 9.99D+03 ExpMxC= 1.51D+03 IAcc=3 IRadAn=         5 AccDes= 0.00D+00
 HarFok:  IExCor=  205 AccDes= 0.00D+00 IRadAn=         5 IDoV=-2
 ScaDFX=  1.000000  1.000000  1.000000  1.000000
 Defaulting to unpruned grid for atomic number  50.
 Defaulting to unpruned grid for atomic number  50.
 Defaulting to unpruned grid for atomic number  50.
 Defaulting to unpruned grid for atomic number  50.
 Defaulting to unpruned grid for atomic number  50.
 Defaulting to unpruned grid for atomic number  50.
 Defaulting to unpruned grid for atomic number  50.
 Defaulting to unpruned grid for atomic number  50.
 Defaulting to unpruned grid for atomic number  50.
 Defaulting to unpruned grid for atomic number  50.
 Defaulting to unpruned grid for atomic number  50.
 Defaulting to unpruned grid for atomic number  50.
 Defaulting to unpruned grid for atomic number  50.
 Defaulting to unpruned grid for atomic number  50.
 Defaulting to unpruned grid for atomic number  50.
 Defaulting to unpruned grid for atomic number  50.
 Defaulting to unpruned grid for atomic number  50.
 Defaulting to unpruned grid for atomic number  50.
 Defaulting to unpruned grid for atomic number  50.
 Defaulting to unpruned grid for atomic number  50.
 Range of M.O.s used for correlation:     4    65
 NBasis=    65 NAE=    20 NBE=    20 NFC=     3 NFV=     0
 NROrb=     62 NOA=    17 NOB=    17 NVA=    45 NVB=    45
 Fully direct method using O(ONN) memory.
 JobTyp=1 Pass  1:  I=   4 to  20 NPSUse= 20 ParTrn=T ParDer=T DoDerP=T.
 Spin components of T(2) and E(2):
     alpha-alpha T2 =       0.2185739620D-01 E2=     -0.4719355643D-01
     alpha-beta  T2 =       0.1663079648D+00 E2=     -0.3211177190D+00
     beta-beta   T2 =       0.2185739620D-01 E2=     -0.4719355643D-01
 ANorm=    0.1100010344D+01
 E2 =    -0.4155048319D+00 EUMP2 =    -0.19740815357747D+03
          IDoAtm=1111111111
          Differentiating once with respect to electric field.
                with respect to dipole field.
          Differentiating once with respect to nuclear coordinates.
          Keep R1 ints in memory in canonical form, NReq=3102463.
          There are     1 degrees of freedom in the 1st order CPHF.  IDoFFX=0.
 LinEq1:  Iter=  0 NonCon=     1 RMS=8.99D-03 Max=8.78D-02
 AX will form     1 AO Fock derivatives at one time.
 LinEq1:  Iter=  1 NonCon=     1 RMS=3.52D-03 Max=3.09D-02
 LinEq1:  Iter=  2 NonCon=     1 RMS=1.11D-03 Max=1.36D-02
 LinEq1:  Iter=  3 NonCon=     1 RMS=2.38D-04 Max=2.34D-03
 LinEq1:  Iter=  4 NonCon=     1 RMS=8.17D-05 Max=6.70D-04
 LinEq1:  Iter=  5 NonCon=     1 RMS=2.13D-05 Max=1.38D-04
 LinEq1:  Iter=  6 NonCon=     1 RMS=5.37D-06 Max=5.30D-05
 LinEq1:  Iter=  7 NonCon=     1 RMS=1.04D-06 Max=7.88D-06
 LinEq1:  Iter=  8 NonCon=     1 RMS=3.84D-07 Max=4.80D-06
 LinEq1:  Iter=  9 NonCon=     1 RMS=1.58D-07 Max=2.12D-06
 LinEq1:  Iter= 10 NonCon=     1 RMS=4.36D-08 Max=5.18D-07
 LinEq1:  Iter= 11 NonCon=     1 RMS=1.21D-08 Max=1.78D-07
 LinEq1:  Iter= 12 NonCon=     1 RMS=2.32D-09 Max=1.79D-08
 LinEq1:  Iter= 13 NonCon=     1 RMS=4.23D-10 Max=2.79D-09
 LinEq1:  Iter= 14 NonCon=     0 RMS=5.69D-11 Max=4.08D-10
 Linear equations converged to 1.000D-10 1.000D-09 after    14 iterations.
 End of Minotr Frequency-dependent properties file   721 does not exist.
 End of Minotr Frequency-dependent properties file   722 does not exist.
   1 Symmetry operations used in ECPInt.
 ECPInt:  NShTT=     780 NPrTT=    3579 LenC2=     767 LenP2D=    2825.
 LDataN:  DoStor=T MaxTD1= 6 Len=  172
 Calling FoFJK, ICntrl=      2127 FMM=F ISym2X=0 I1Cent= 0 IOpClX= 0 NMat=1 NMatS=1 NMatT=0.
 ***** Axes restored to original set *****
 -------------------------------------------------------------------
 Center     Atomic                   Forces (Hartrees/Bohr)
 Number     Number              X              Y              Z
 -------------------------------------------------------------------
      1        6           0.002678136    0.009782014    0.000867916
      2        6          -0.000326659    0.000139838    0.000085674
      3        1           0.000341112   -0.001288171    0.000056043
      4        1          -0.000376553    0.000198639    0.000415687
      5        1           0.000484481   -0.000413112   -0.000392140
      6        1           0.000534188   -0.000304586   -0.000442583
      7       50           0.000820083   -0.000136256   -0.000682826
      8       50          -0.000333257    0.000339373    0.000920198
      9        9          -0.001016398   -0.007634048   -0.000861098
     10       35          -0.002805133   -0.000683691    0.000033130
 -------------------------------------------------------------------
 Cartesian Forces:  Max     0.009782014 RMS     0.002433338

 GradGradGradGradGradGradGradGradGradGradGradGradGradGradGradGradGradGrad
 Berny optimization.
 Using GEDIIS/GDIIS optimizer.
 Internal  Forces:  Max     0.007746871 RMS     0.001583353
 Search for a local minimum.
 Step number   2 out of a maximum of   43
 All quantities printed in internal units (Hartrees-Bohrs-Radians)
 Mixed Optimization -- RFO/linear search
 Update second derivatives using D2CorX and points    1    2
 DE= -4.71D-03 DEPred=-4.87D-03 R= 9.66D-01
 SS=  1.41D+00  RLast= 1.76D-01 DXNew= 5.0454D-01 5.2829D-01
 Trust test= 9.66D-01 RLast= 1.76D-01 DXMaxT set to 5.05D-01
 Use linear search instead of GDIIS.
     Eigenvalues ---    0.00230   0.00230   0.01679   0.03017   0.03148
     Eigenvalues ---    0.03150   0.05051   0.07148   0.12058   0.12067
     Eigenvalues ---    0.12090   0.12158   0.12381   0.15900   0.16000
     Eigenvalues ---    0.16019   0.18620   0.21977   0.23246   0.24993
     Eigenvalues ---    0.25019   0.35966   0.44079   0.651971000.00000
     Eigenvalues --- 1000.000001000.000001000.000001000.000001000.00000
     Eigenvalues --- 1000.000001000.000001000.00000
 RFO step:  Lambda=-3.47209613D-04 EMin= 2.29750462D-03
 Quartic linear search produced a step of  0.03321.
 Iteration  1 RMS(Cart)=  0.07216817 RMS(Int)=  0.00154315
 Iteration  2 RMS(Cart)=  0.00197015 RMS(Int)=  0.00000651
 Iteration  3 RMS(Cart)=  0.00000083 RMS(Int)=  0.00000647
 Variable       Old X    -DE/DX   Delta X   Delta X   Delta X     New X
                                 (Linear)    (Quad)   (Total)
    R1        2.57118  -0.00180   0.00256  -0.00304  -0.00048   2.57070
    R2        2.67909   0.00775   0.00248   0.01616   0.01864   2.69773
    R3        3.70576  -0.00289   0.00271  -0.01691  -0.01420   3.69156
    R4        2.08099   0.00028   0.00135   0.00082   0.00217   2.08317
    R5        4.11466  -0.00036   0.00093  -0.00296  -0.00203   4.11264
    R6        3.28839  -0.00043   0.00124  -0.00350  -0.00227   3.28612
    R7        3.29599  -0.00051   0.00105  -0.00426  -0.00321   3.29279
    R8        3.29568  -0.00051   0.00101  -0.00424  -0.00323   3.29245
    R9        5.19769  -0.00077  -0.00218  -0.01162  -0.01379   5.18390
    A1        2.13185  -0.00029   0.00005  -0.00118  -0.00113   2.13072
    A2        2.23448   0.00015  -0.00026   0.00060   0.00034   2.23482
    A3        1.91686   0.00014   0.00021   0.00057   0.00077   1.91763
    A4        1.99897  -0.00066   0.00019  -0.00551  -0.00532   1.99365
    A5        2.26087  -0.00132  -0.00011  -0.00626  -0.00637   2.25449
    A6        2.02203   0.00198  -0.00009   0.01154   0.01145   2.03348
    A7        1.81608   0.00080   0.00049   0.00835   0.00884   1.82491
    A8        1.96007  -0.00060  -0.00001  -0.00135  -0.00136   1.95870
    A9        2.02621  -0.00022  -0.00012  -0.00019  -0.00032   2.02589
   A10        1.80554   0.00100   0.00078   0.01108   0.01186   1.81740
   A11        1.93189  -0.00056  -0.00003  -0.00130  -0.00133   1.93055
   A12        1.95172  -0.00049  -0.00011  -0.00093  -0.00104   1.95068
    D1        0.01973  -0.00011   0.00026  -0.00197  -0.00172   0.01802
    D2        3.10321  -0.00016   0.00019  -0.00664  -0.00644   3.09676
    D3       -3.11930   0.00007   0.00004   0.00382   0.00386  -3.11544
    D4       -0.03582   0.00002  -0.00003  -0.00085  -0.00087  -0.03669
    D5        0.54448  -0.00011  -0.00050  -0.08791  -0.08841   0.45607
    D6        2.74975  -0.00020  -0.00032  -0.08318  -0.08349   2.66626
    D7       -2.65586  -0.00023  -0.00057  -0.09311  -0.09370  -2.74957
    D8       -0.45060  -0.00032  -0.00039  -0.08839  -0.08878  -0.53938
    D9        3.03671   0.00006   0.00009  -0.00920  -0.00911   3.02761
   D10        1.03350  -0.00054  -0.00079  -0.02151  -0.02230   1.01120
   D11       -1.15997   0.00049   0.00065   0.00079   0.00144  -1.15853
   D12        3.12000  -0.00011  -0.00022  -0.01152  -0.01175   3.10825
         Item               Value     Threshold  Converged?
 Maximum Force            0.007747     0.000450     NO 
 RMS     Force            0.001583     0.000300     NO 
 Maximum Displacement     0.244874     0.001800     NO 
 RMS     Displacement     0.072226     0.001200     NO 
 Predicted change in Energy=-1.778246D-04
 GradGradGradGradGradGradGradGradGradGradGradGradGradGradGradGradGradGrad

                          Input orientation:                          
 ---------------------------------------------------------------------
 Center     Atomic      Atomic             Coordinates (Angstroms)
 Number     Number       Type             X           Y           Z
 ---------------------------------------------------------------------
      1          6           0        1.115666   -2.334563   -0.078894
      2          6           0        0.050970   -1.513722    0.128979
      3          1           0       -0.919266   -2.034776    0.177480
      4          1           0        1.467786    1.222502   -0.281789
      5          1           0       -2.387343    3.463487    0.113851
      6          1           0       -3.710667    1.077133    0.442586
      7         50           0        0.018645    0.634132    0.478291
      8         50           0       -2.329806    1.784837   -0.349845
      9          9           0        0.965430   -3.744917   -0.241100
     10         35           0        3.004930   -1.850711   -0.191559
 ---------------------------------------------------------------------
                    Distance matrix (angstroms):
                    1          2          3          4          5
     1  C    0.000000
     2  C    1.360356   0.000000
     3  H    2.072812   1.102365   0.000000
     4  H    3.580205   3.108541   4.064334   0.000000
     5  H    6.776844   5.542402   5.691239   4.476669   0.000000
     6  H    5.933388   4.578296   4.188816   5.230891   2.748443
     7  Sn   3.213574   2.176313   2.844861   1.738940   3.731869
     8  Sn   5.377188   4.096079   4.105745   3.839603   1.742467
     9  F    1.427579   2.439555   2.579122   4.992923   7.957900
    10  Br   1.953491   2.990349   3.945806   3.437382   7.576977
                    6          7          8          9         10
     6  H    0.000000
     7  Sn   3.755701   0.000000
     8  Sn   1.742289   2.743201   0.000000
     9  F    6.751702   4.537620   6.438058   0.000000
    10  Br   7.353479   3.942213   6.457683   2.783888   0.000000
 Stoichiometry    C2H4BrFSn2
 Framework group  C1[X(C2H4BrFSn2)]
 Deg. of freedom    24
 Full point group                 C1      NOp   1
 Largest Abelian subgroup         C1      NOp   1
 Largest concise Abelian subgroup C1      NOp   1
                         Standard orientation:                         
 ---------------------------------------------------------------------
 Center     Atomic      Atomic             Coordinates (Angstroms)
 Number     Number       Type             X           Y           Z
 ---------------------------------------------------------------------
      1          6           0       -2.383278    1.050827    0.099057
      2          6           0       -1.042902    1.084902    0.328831
      3          1           0       -0.649489    2.087604    0.563401
      4          1           0       -0.323453   -1.792022   -0.603225
      5          1           0        4.055301   -1.059652   -0.028150
      6          1           0        3.494469    1.510940    0.766496
      7         50           0        0.382000   -0.558583    0.399210
      8         50           0        2.918972    0.238088   -0.274763
      9          9           0       -3.189750    2.228071    0.140061
     10         35           0       -3.496017   -0.502546   -0.307107
 ---------------------------------------------------------------------
 Rotational constants (GHZ):      2.1598940      0.2171454      0.2033241
 Standard basis: SDD (6D, 10F)
 There are    65 symmetry adapted basis functions of A   symmetry.
 Integral buffers will be    131072 words long.
 Raffenetti 1 integral format.
 Two-electron integral symmetry is turned on.
    65 basis functions,   139 primitive gaussians,    65 cartesian basis functions
    20 alpha electrons       20 beta electrons
       nuclear repulsion energy       131.1199615144 Hartrees.
 NAtoms=   10 NActive=   10 NUniq=   10 SFac= 7.50D-01 NAtFMM=   80 NAOKFM=F Big=F
 One-electron integrals computed using PRISM.
   1 Symmetry operations used in ECPInt.
 ECPInt:  NShTT=     780 NPrTT=    3579 LenC2=     767 LenP2D=    2825.
 LDataN:  DoStor=T MaxTD1= 5 Len=  102
 NBasis=    65 RedAO= T  NBF=    65
 NBsUse=    65 1.00D-06 NBFU=    65
 Initial guess read from the read-write file.
 B after Tr=     0.000000    0.000000    0.000000
         Rot=    1.000000    0.000000    0.000000    0.000000 Ang=   0.00 deg.
 Initial guess orbital symmetries:
       Occupied  (A) (A) (A) (A) (A) (A) (A) (A) (A) (A) (A) (A)
                 (A) (A) (A) (A) (A) (A) (A) (A)
       Virtual   (A) (A) (A) (A) (A) (A) (A) (A) (A) (A) (A) (A)
                 (A) (A) (A) (A) (A) (A) (A) (A) (A) (A) (A) (A)
                 (A) (A) (A) (A) (A) (A) (A) (A) (A) (A) (A) (A)
                 (A) (A) (A) (A) (A) (A) (A) (A) (A)
 Harris functional with IExCor=  205 diagonalized for initial guess.
 ExpMin= 3.61D-02 ExpMax= 9.99D+03 ExpMxC= 1.51D+03 IAcc=3 IRadAn=         0 AccDes= 0.00D+00
 HarFok:  IExCor=  205 AccDes= 0.00D+00 IRadAn=         0 IDoV= 1
 ScaDFX=  1.000000  1.000000  1.000000  1.000000
 Defaulting to unpruned grid for atomic number  50.
 Defaulting to unpruned grid for atomic number  50.
 Defaulting to unpruned grid for atomic number  50.
 Defaulting to unpruned grid for atomic number  50.
 Defaulting to unpruned grid for atomic number  50.
 Defaulting to unpruned grid for atomic number  50.
 Defaulting to unpruned grid for atomic number  50.
 Defaulting to unpruned grid for atomic number  50.
 Defaulting to unpruned grid for atomic number  50.
 Defaulting to unpruned grid for atomic number  50.
 Defaulting to unpruned grid for atomic number  50.
 Defaulting to unpruned grid for atomic number  50.
 Defaulting to unpruned grid for atomic number  50.
 Defaulting to unpruned grid for atomic number  50.
 Defaulting to unpruned grid for atomic number  50.
 Defaulting to unpruned grid for atomic number  50.
 Defaulting to unpruned grid for atomic number  50.
 Defaulting to unpruned grid for atomic number  50.
 Defaulting to unpruned grid for atomic number  50.
 Defaulting to unpruned grid for atomic number  50.
 FoFCou: FMM=F IPFlag=           0 FMFlag=      100000 FMFlg1=           0
         NFxFlg=           0 DoJE=T BraDBF=F KetDBF=T FulRan=T
         Omega=  0.000000  0.000000  1.000000  0.000000  0.000000 ICntrl=     500 IOpCl=  0
         NMat0=    1 NMatS0=    1 NMatT0=    0 NMatD0=    1 NMtDS0=    0 NMtDT0=    0
         I1Cent=           4 NGrid=           0.
 Petite list used in FoFCou.
 Requested convergence on RMS density matrix=1.00D-08 within 128 cycles.
 Requested convergence on MAX density matrix=1.00D-06.
 Requested convergence on             energy=1.00D-06.
 No special actions if energy rises.
 Keep R1 ints in memory in canonical form, NReq=3134234.
 SCF Done:  E(RHF) =  -196.992248498     A.U. after   12 cycles
             Convg  =    0.4781D-08             -V/T =  2.0719
 ExpMin= 3.61D-02 ExpMax= 9.99D+03 ExpMxC= 1.51D+03 IAcc=3 IRadAn=         5 AccDes= 0.00D+00
 HarFok:  IExCor=  205 AccDes= 0.00D+00 IRadAn=         5 IDoV=-2
 ScaDFX=  1.000000  1.000000  1.000000  1.000000
 Defaulting to unpruned grid for atomic number  50.
 Defaulting to unpruned grid for atomic number  50.
 Defaulting to unpruned grid for atomic number  50.
 Defaulting to unpruned grid for atomic number  50.
 Defaulting to unpruned grid for atomic number  50.
 Defaulting to unpruned grid for atomic number  50.
 Defaulting to unpruned grid for atomic number  50.
 Defaulting to unpruned grid for atomic number  50.
 Defaulting to unpruned grid for atomic number  50.
 Defaulting to unpruned grid for atomic number  50.
 Defaulting to unpruned grid for atomic number  50.
 Defaulting to unpruned grid for atomic number  50.
 Defaulting to unpruned grid for atomic number  50.
 Defaulting to unpruned grid for atomic number  50.
 Defaulting to unpruned grid for atomic number  50.
 Defaulting to unpruned grid for atomic number  50.
 Defaulting to unpruned grid for atomic number  50.
 Defaulting to unpruned grid for atomic number  50.
 Defaulting to unpruned grid for atomic number  50.
 Defaulting to unpruned grid for atomic number  50.
 Range of M.O.s used for correlation:     4    65
 NBasis=    65 NAE=    20 NBE=    20 NFC=     3 NFV=     0
 NROrb=     62 NOA=    17 NOB=    17 NVA=    45 NVB=    45
 Fully direct method using O(ONN) memory.
 JobTyp=1 Pass  1:  I=   4 to  20 NPSUse= 20 ParTrn=T ParDer=T DoDerP=T.
 Spin components of T(2) and E(2):
     alpha-alpha T2 =       0.2192688467D-01 E2=     -0.4730151367D-01
     alpha-beta  T2 =       0.1665928453D+00 E2=     -0.3215222930D+00
     beta-beta   T2 =       0.2192688467D-01 E2=     -0.4730151367D-01
 ANorm=    0.1100202988D+01
 E2 =    -0.4161253203D+00 EUMP2 =    -0.19740837381788D+03
          IDoAtm=1111111111
          Differentiating once with respect to electric field.
                with respect to dipole field.
          Differentiating once with respect to nuclear coordinates.
          Keep R1 ints in memory in canonical form, NReq=3102463.
          There are     1 degrees of freedom in the 1st order CPHF.  IDoFFX=0.
 LinEq1:  Iter=  0 NonCon=     1 RMS=8.99D-03 Max=9.18D-02
 AX will form     1 AO Fock derivatives at one time.
 LinEq1:  Iter=  1 NonCon=     1 RMS=3.53D-03 Max=3.19D-02
 LinEq1:  Iter=  2 NonCon=     1 RMS=1.11D-03 Max=1.33D-02
 LinEq1:  Iter=  3 NonCon=     1 RMS=2.40D-04 Max=2.37D-03
 LinEq1:  Iter=  4 NonCon=     1 RMS=8.33D-05 Max=6.92D-04
 LinEq1:  Iter=  5 NonCon=     1 RMS=2.14D-05 Max=1.36D-04
 LinEq1:  Iter=  6 NonCon=     1 RMS=5.38D-06 Max=5.50D-05
 LinEq1:  Iter=  7 NonCon=     1 RMS=1.16D-06 Max=8.02D-06
 LinEq1:  Iter=  8 NonCon=     1 RMS=5.18D-07 Max=7.18D-06
 LinEq1:  Iter=  9 NonCon=     1 RMS=1.92D-07 Max=2.78D-06
 LinEq1:  Iter= 10 NonCon=     1 RMS=4.57D-08 Max=5.29D-07
 LinEq1:  Iter= 11 NonCon=     1 RMS=1.27D-08 Max=1.74D-07
 LinEq1:  Iter= 12 NonCon=     1 RMS=2.38D-09 Max=1.81D-08
 LinEq1:  Iter= 13 NonCon=     1 RMS=4.27D-10 Max=2.77D-09
 LinEq1:  Iter= 14 NonCon=     0 RMS=5.78D-11 Max=4.23D-10
 Linear equations converged to 1.000D-10 1.000D-09 after    14 iterations.
 End of Minotr Frequency-dependent properties file   721 does not exist.
 End of Minotr Frequency-dependent properties file   722 does not exist.
   1 Symmetry operations used in ECPInt.
 ECPInt:  NShTT=     780 NPrTT=    3579 LenC2=     767 LenP2D=    2825.
 LDataN:  DoStor=T MaxTD1= 6 Len=  172
 Calling FoFJK, ICntrl=      2127 FMM=F ISym2X=0 I1Cent= 0 IOpClX= 0 NMat=1 NMatS=1 NMatT=0.
 ***** Axes restored to original set *****
 -------------------------------------------------------------------
 Center     Atomic                   Forces (Hartrees/Bohr)
 Number     Number              X              Y              Z
 -------------------------------------------------------------------
      1        6           0.001536561    0.004737470    0.000547500
      2        6          -0.000825905   -0.001142669   -0.000023513
      3        1           0.000612150   -0.000011754   -0.000061133
      4        1          -0.000363598   -0.000020216    0.000281013
      5        1           0.000112743   -0.000188654   -0.000215398
      6        1           0.000230482   -0.000063128   -0.000180744
      7       50           0.000352150   -0.000172575   -0.000353094
      8       50          -0.000364438    0.000316167    0.000402601
      9        9          -0.000683492   -0.002498006   -0.000269743
     10       35          -0.000606653   -0.000956634   -0.000127490
 -------------------------------------------------------------------
 Cartesian Forces:  Max     0.004737470 RMS     0.001104840

 GradGradGradGradGradGradGradGradGradGradGradGradGradGradGradGradGradGrad
 Berny optimization.
 Using GEDIIS/GDIIS optimizer.
 Internal  Forces:  Max     0.002570445 RMS     0.000735834
 Search for a local minimum.
 Step number   3 out of a maximum of   43
 All quantities printed in internal units (Hartrees-Bohrs-Radians)
 Mixed Optimization -- En-DIIS/RFO-DIIS
 Update second derivatives using D2CorX and points    1    2    3
 DE= -2.20D-04 DEPred=-1.78D-04 R= 1.24D+00
 SS=  1.41D+00  RLast= 1.83D-01 DXNew= 8.4853D-01 5.4850D-01
 Trust test= 1.24D+00 RLast= 1.83D-01 DXMaxT set to 5.49D-01
 Use linear search instead of GDIIS.
     Eigenvalues ---    0.00213   0.00234   0.01670   0.02929   0.03147
     Eigenvalues ---    0.03167   0.04788   0.07118   0.11823   0.12061
     Eigenvalues ---    0.12068   0.12152   0.12361   0.14863   0.16007
     Eigenvalues ---    0.16015   0.17521   0.21921   0.23107   0.24964
     Eigenvalues ---    0.27239   0.36558   0.40562   0.649141000.00000
     Eigenvalues --- 1000.000001000.000001000.000001000.000001000.00000
     Eigenvalues --- 1000.000001000.000001000.00000
 RFO step:  Lambda=-8.22894907D-05 EMin= 2.12852204D-03
 Quartic linear search produced a step of  0.35779.
 Iteration  1 RMS(Cart)=  0.04081022 RMS(Int)=  0.00048487
 Iteration  2 RMS(Cart)=  0.00063386 RMS(Int)=  0.00000541
 Iteration  3 RMS(Cart)=  0.00000010 RMS(Int)=  0.00000541
 Variable       Old X    -DE/DX   Delta X   Delta X   Delta X     New X
                                 (Linear)    (Quad)   (Total)
    R1        2.57070  -0.00060  -0.00017   0.00017   0.00000   2.57070
    R2        2.69773   0.00257   0.00667   0.00609   0.01275   2.71049
    R3        3.69156  -0.00082  -0.00508  -0.00293  -0.00801   3.68356
    R4        2.08317  -0.00054   0.00078  -0.00150  -0.00073   2.08244
    R5        4.11264  -0.00014  -0.00073  -0.00070  -0.00142   4.11122
    R6        3.28612  -0.00043  -0.00081  -0.00370  -0.00451   3.28161
    R7        3.29279  -0.00024  -0.00115  -0.00165  -0.00280   3.28998
    R8        3.29245  -0.00024  -0.00116  -0.00164  -0.00280   3.28965
    R9        5.18390   0.00004  -0.00493   0.00106  -0.00387   5.18003
    A1        2.13072  -0.00172  -0.00040  -0.00911  -0.00951   2.12120
    A2        2.23482   0.00233   0.00012   0.01236   0.01248   2.24729
    A3        1.91763  -0.00060   0.00028  -0.00322  -0.00295   1.91468
    A4        1.99365  -0.00056  -0.00190  -0.00334  -0.00524   1.98841
    A5        2.25449   0.00049  -0.00228   0.00376   0.00148   2.25597
    A6        2.03348   0.00007   0.00410  -0.00034   0.00375   2.03724
    A7        1.82491   0.00022   0.00316   0.00309   0.00624   1.83116
    A8        1.95870  -0.00007  -0.00049   0.00060   0.00010   1.95881
    A9        2.02589  -0.00008  -0.00011   0.00054   0.00041   2.02630
   A10        1.81740   0.00029   0.00424   0.00442   0.00865   1.82605
   A11        1.93055   0.00006  -0.00048   0.00213   0.00164   1.93219
   A12        1.95068  -0.00015  -0.00037   0.00032  -0.00006   1.95062
    D1        0.01802   0.00002  -0.00061   0.00118   0.00056   0.01857
    D2        3.09676   0.00004  -0.00231   0.00265   0.00035   3.09711
    D3       -3.11544  -0.00010   0.00138  -0.00454  -0.00316  -3.11860
    D4       -0.03669  -0.00007  -0.00031  -0.00307  -0.00337  -0.04007
    D5        0.45607  -0.00006  -0.03163  -0.01923  -0.05086   0.40521
    D6        2.66626  -0.00004  -0.02987  -0.01601  -0.04587   2.62040
    D7       -2.74957  -0.00006  -0.03353  -0.01781  -0.05135  -2.80092
    D8       -0.53938  -0.00004  -0.03176  -0.01459  -0.04635  -0.58573
    D9        3.02761   0.00008  -0.00326   0.01537   0.01211   3.03972
   D10        1.01120  -0.00022  -0.00798   0.00839   0.00041   1.01161
   D11       -1.15853   0.00026   0.00051   0.02042   0.02093  -1.13760
   D12        3.10825  -0.00003  -0.00420   0.01344   0.00923   3.11748
         Item               Value     Threshold  Converged?
 Maximum Force            0.002570     0.000450     NO 
 RMS     Force            0.000736     0.000300     NO 
 Maximum Displacement     0.142121     0.001800     NO 
 RMS     Displacement     0.040784     0.001200     NO 
 Predicted change in Energy=-5.690462D-05
 GradGradGradGradGradGradGradGradGradGradGradGradGradGradGradGradGradGrad

                          Input orientation:                          
 ---------------------------------------------------------------------
 Center     Atomic      Atomic             Coordinates (Angstroms)
 Number     Number       Type             X           Y           Z
 ---------------------------------------------------------------------
      1          6           0        1.115669   -2.326419   -0.088908
      2          6           0        0.052008   -1.513147    0.151470
      3          1           0       -0.909588   -2.045884    0.228196
      4          1           0        1.471439    1.232570   -0.222793
      5          1           0       -2.383016    3.463853    0.087686
      6          1           0       -3.713736    1.072980    0.411417
      7         50           0        0.012008    0.633458    0.502976
      8         50           0       -2.322920    1.782148   -0.358731
      9          9           0        0.956296   -3.743122   -0.246548
     10         35           0        2.998184   -1.853036   -0.266766
 ---------------------------------------------------------------------
                    Distance matrix (angstroms):
                    1          2          3          4          5
     1  C    0.000000
     2  C    1.360356   0.000000
     3  H    2.069038   1.101981   0.000000
     4  H    3.579231   3.113489   4.076878   0.000000
     5  H    6.767513   5.541113   5.705079   4.464509   0.000000
     6  H    5.927005   4.575636   4.198110   5.226254   2.755338
     7  Sn   3.213917   2.175561   2.846703   1.736552   3.730917
     8  Sn   5.364422   4.093844   4.122599   3.836362   1.740985
     9  F    1.434328   2.439046   2.566616   5.002344   7.950044
    10  Br   1.949254   2.995063   3.943712   3.442941   7.573127
                    6          7          8          9         10
     6  H    0.000000
     7  Sn   3.752696   0.000000
     8  Sn   1.740809   2.741153   0.000000
     9  F    6.740694   4.539594   6.426076   0.000000
    10  Br   7.353324   3.961364   6.444934   2.782471   0.000000
 Stoichiometry    C2H4BrFSn2
 Framework group  C1[X(C2H4BrFSn2)]
 Deg. of freedom    24
 Full point group                 C1      NOp   1
 Largest Abelian subgroup         C1      NOp   1
 Largest concise Abelian subgroup C1      NOp   1
                         Standard orientation:                         
 ---------------------------------------------------------------------
 Center     Atomic      Atomic             Coordinates (Angstroms)
 Number     Number       Type             X           Y           Z
 ---------------------------------------------------------------------
      1          6           0       -2.380634    1.036165    0.114623
      2          6           0       -1.044303    1.074004    0.366325
      3          1           0       -0.666054    2.076723    0.622926
      4          1           0       -0.320026   -1.818933   -0.528189
      5          1           0        4.054325   -1.050736   -0.073461
      6          1           0        3.495269    1.529748    0.714226
      7         50           0        0.390766   -0.559744    0.433495
      8         50           0        2.908416    0.240620   -0.297787
      9          9           0       -3.187338    2.221071    0.164874
     10         35           0       -3.493912   -0.498035   -0.339727
 ---------------------------------------------------------------------
 Rotational constants (GHZ):      2.1077258      0.2172441      0.2040774
 Standard basis: SDD (6D, 10F)
 There are    65 symmetry adapted basis functions of A   symmetry.
 Integral buffers will be    131072 words long.
 Raffenetti 1 integral format.
 Two-electron integral symmetry is turned on.
    65 basis functions,   139 primitive gaussians,    65 cartesian basis functions
    20 alpha electrons       20 beta electrons
       nuclear repulsion energy       131.0619798142 Hartrees.
 NAtoms=   10 NActive=   10 NUniq=   10 SFac= 7.50D-01 NAtFMM=   80 NAOKFM=F Big=F
 One-electron integrals computed using PRISM.
   1 Symmetry operations used in ECPInt.
 ECPInt:  NShTT=     780 NPrTT=    3579 LenC2=     767 LenP2D=    2824.
 LDataN:  DoStor=T MaxTD1= 5 Len=  102
 NBasis=    65 RedAO= T  NBF=    65
 NBsUse=    65 1.00D-06 NBFU=    65
 Initial guess read from the read-write file.
 B after Tr=     0.000000    0.000000    0.000000
         Rot=    1.000000    0.000000    0.000000    0.000000 Ang=   0.00 deg.
 Initial guess orbital symmetries:
       Occupied  (A) (A) (A) (A) (A) (A) (A) (A) (A) (A) (A) (A)
                 (A) (A) (A) (A) (A) (A) (A) (A)
       Virtual   (A) (A) (A) (A) (A) (A) (A) (A) (A) (A) (A) (A)
                 (A) (A) (A) (A) (A) (A) (A) (A) (A) (A) (A) (A)
                 (A) (A) (A) (A) (A) (A) (A) (A) (A) (A) (A) (A)
                 (A) (A) (A) (A) (A) (A) (A) (A) (A)
 Harris functional with IExCor=  205 diagonalized for initial guess.
 ExpMin= 3.61D-02 ExpMax= 9.99D+03 ExpMxC= 1.51D+03 IAcc=3 IRadAn=         0 AccDes= 0.00D+00
 HarFok:  IExCor=  205 AccDes= 0.00D+00 IRadAn=         0 IDoV= 1
 ScaDFX=  1.000000  1.000000  1.000000  1.000000
 Defaulting to unpruned grid for atomic number  50.
 Defaulting to unpruned grid for atomic number  50.
 Defaulting to unpruned grid for atomic number  50.
 Defaulting to unpruned grid for atomic number  50.
 Defaulting to unpruned grid for atomic number  50.
 Defaulting to unpruned grid for atomic number  50.
 Defaulting to unpruned grid for atomic number  50.
 Defaulting to unpruned grid for atomic number  50.
 Defaulting to unpruned grid for atomic number  50.
 Defaulting to unpruned grid for atomic number  50.
 Defaulting to unpruned grid for atomic number  50.
 Defaulting to unpruned grid for atomic number  50.
 Defaulting to unpruned grid for atomic number  50.
 Defaulting to unpruned grid for atomic number  50.
 Defaulting to unpruned grid for atomic number  50.
 Defaulting to unpruned grid for atomic number  50.
 Defaulting to unpruned grid for atomic number  50.
 Defaulting to unpruned grid for atomic number  50.
 Defaulting to unpruned grid for atomic number  50.
 Defaulting to unpruned grid for atomic number  50.
 FoFCou: FMM=F IPFlag=           0 FMFlag=      100000 FMFlg1=           0
         NFxFlg=           0 DoJE=T BraDBF=F KetDBF=T FulRan=T
         Omega=  0.000000  0.000000  1.000000  0.000000  0.000000 ICntrl=     500 IOpCl=  0
         NMat0=    1 NMatS0=    1 NMatT0=    0 NMatD0=    1 NMtDS0=    0 NMtDT0=    0
         I1Cent=           4 NGrid=           0.
 Petite list used in FoFCou.
 Requested convergence on RMS density matrix=1.00D-08 within 128 cycles.
 Requested convergence on MAX density matrix=1.00D-06.
 Requested convergence on             energy=1.00D-06.
 No special actions if energy rises.
 Keep R1 ints in memory in canonical form, NReq=3134234.
 SCF Done:  E(RHF) =  -196.991982936     A.U. after   12 cycles
             Convg  =    0.3426D-08             -V/T =  2.0719
 ExpMin= 3.61D-02 ExpMax= 9.99D+03 ExpMxC= 1.51D+03 IAcc=3 IRadAn=         5 AccDes= 0.00D+00
 HarFok:  IExCor=  205 AccDes= 0.00D+00 IRadAn=         5 IDoV=-2
 ScaDFX=  1.000000  1.000000  1.000000  1.000000
 Defaulting to unpruned grid for atomic number  50.
 Defaulting to unpruned grid for atomic number  50.
 Defaulting to unpruned grid for atomic number  50.
 Defaulting to unpruned grid for atomic number  50.
 Defaulting to unpruned grid for atomic number  50.
 Defaulting to unpruned grid for atomic number  50.
 Defaulting to unpruned grid for atomic number  50.
 Defaulting to unpruned grid for atomic number  50.
 Defaulting to unpruned grid for atomic number  50.
 Defaulting to unpruned grid for atomic number  50.
 Defaulting to unpruned grid for atomic number  50.
 Defaulting to unpruned grid for atomic number  50.
 Defaulting to unpruned grid for atomic number  50.
 Defaulting to unpruned grid for atomic number  50.
 Defaulting to unpruned grid for atomic number  50.
 Defaulting to unpruned grid for atomic number  50.
 Defaulting to unpruned grid for atomic number  50.
 Defaulting to unpruned grid for atomic number  50.
 Defaulting to unpruned grid for atomic number  50.
 Defaulting to unpruned grid for atomic number  50.
 Range of M.O.s used for correlation:     4    65
 NBasis=    65 NAE=    20 NBE=    20 NFC=     3 NFV=     0
 NROrb=     62 NOA=    17 NOB=    17 NVA=    45 NVB=    45
 Fully direct method using O(ONN) memory.
 JobTyp=1 Pass  1:  I=   4 to  20 NPSUse= 20 ParTrn=T ParDer=T DoDerP=T.
 Spin components of T(2) and E(2):
     alpha-alpha T2 =       0.2196451719D-01 E2=     -0.4735661164D-01
     alpha-beta  T2 =       0.1667527385D+00 E2=     -0.3217439560D+00
     beta-beta   T2 =       0.2196451719D-01 E2=     -0.4735661164D-01
 ANorm=    0.1100309853D+01
 E2 =    -0.4164571793D+00 EUMP2 =    -0.19740844011578D+03
          IDoAtm=1111111111
          Differentiating once with respect to electric field.
                with respect to dipole field.
          Differentiating once with respect to nuclear coordinates.
          Keep R1 ints in memory in canonical form, NReq=3102463.
          There are     1 degrees of freedom in the 1st order CPHF.  IDoFFX=0.
 LinEq1:  Iter=  0 NonCon=     1 RMS=8.99D-03 Max=9.37D-02
 AX will form     1 AO Fock derivatives at one time.
 LinEq1:  Iter=  1 NonCon=     1 RMS=3.55D-03 Max=3.22D-02
 LinEq1:  Iter=  2 NonCon=     1 RMS=1.11D-03 Max=1.31D-02
 LinEq1:  Iter=  3 NonCon=     1 RMS=2.41D-04 Max=2.37D-03
 LinEq1:  Iter=  4 NonCon=     1 RMS=8.45D-05 Max=7.07D-04
 LinEq1:  Iter=  5 NonCon=     1 RMS=2.16D-05 Max=1.33D-04
 LinEq1:  Iter=  6 NonCon=     1 RMS=5.55D-06 Max=5.62D-05
 LinEq1:  Iter=  7 NonCon=     1 RMS=1.59D-06 Max=1.12D-05
 LinEq1:  Iter=  8 NonCon=     1 RMS=7.54D-07 Max=7.80D-06
 LinEq1:  Iter=  9 NonCon=     1 RMS=2.06D-07 Max=3.54D-06
 LinEq1:  Iter= 10 NonCon=     1 RMS=4.72D-08 Max=5.55D-07
 LinEq1:  Iter= 11 NonCon=     1 RMS=1.30D-08 Max=1.77D-07
 LinEq1:  Iter= 12 NonCon=     1 RMS=2.41D-09 Max=1.83D-08
 LinEq1:  Iter= 13 NonCon=     1 RMS=4.31D-10 Max=2.70D-09
 LinEq1:  Iter= 14 NonCon=     0 RMS=5.85D-11 Max=4.34D-10
 Linear equations converged to 1.000D-10 1.000D-09 after    14 iterations.
 End of Minotr Frequency-dependent properties file   721 does not exist.
 End of Minotr Frequency-dependent properties file   722 does not exist.
   1 Symmetry operations used in ECPInt.
 ECPInt:  NShTT=     780 NPrTT=    3579 LenC2=     767 LenP2D=    2824.
 LDataN:  DoStor=T MaxTD1= 6 Len=  172
 Calling FoFJK, ICntrl=      2127 FMM=F ISym2X=0 I1Cent= 0 IOpClX= 0 NMat=1 NMatS=1 NMatT=0.
 ***** Axes restored to original set *****
 -------------------------------------------------------------------
 Center     Atomic                   Forces (Hartrees/Bohr)
 Number     Number              X              Y              Z
 -------------------------------------------------------------------
      1        6           0.000171068    0.001037675    0.000090123
      2        6           0.000161869   -0.000844614   -0.000010733
      3        1           0.000223171    0.000315239   -0.000032707
      4        1           0.000100953   -0.000095225   -0.000108072
      5        1          -0.000086770   -0.000000132    0.000100153
      6        1          -0.000008451    0.000048597   -0.000026158
      7       50          -0.000335107   -0.000202682    0.000109827
      8       50           0.000045389    0.000035597   -0.000106508
      9        9          -0.000163027    0.000069789    0.000058311
     10       35          -0.000109096   -0.000364242   -0.000074236
 -------------------------------------------------------------------
 Cartesian Forces:  Max     0.001037675 RMS     0.000284063

 GradGradGradGradGradGradGradGradGradGradGradGradGradGradGradGradGradGrad
 Berny optimization.
 Using GEDIIS/GDIIS optimizer.
 Internal  Forces:  Max     0.000985810 RMS     0.000279872
 Search for a local minimum.
 Step number   4 out of a maximum of   43
 All quantities printed in internal units (Hartrees-Bohrs-Radians)
 Mixed Optimization -- En-DIIS/RFO-DIIS
 Swaping is turned off.
 Update second derivatives using D2CorX and points    1    2    3    4
 DE= -6.63D-05 DEPred=-5.69D-05 R= 1.17D+00
 SS=  1.41D+00  RLast= 1.04D-01 DXNew= 9.2247D-01 3.1269D-01
 Trust test= 1.17D+00 RLast= 1.04D-01 DXMaxT set to 5.49D-01
     Eigenvalues ---    0.00169   0.00261   0.01666   0.02956   0.03136
     Eigenvalues ---    0.03169   0.04923   0.07115   0.11784   0.12063
     Eigenvalues ---    0.12111   0.12222   0.12441   0.14556   0.16013
     Eigenvalues ---    0.16019   0.16752   0.21753   0.23329   0.24887
     Eigenvalues ---    0.25620   0.36133   0.42473   0.643871000.00000
     Eigenvalues --- 1000.000001000.000001000.000001000.000001000.00000
     Eigenvalues --- 1000.000001000.000001000.00000
 En-DIIS/RFO-DIIS IScMMF=        0 using points:     4    3
 RFO step:  Lambda=-6.09542660D-06.
 DIIS coeffs:      1.18832     -0.18832
 Iteration  1 RMS(Cart)=  0.04193368 RMS(Int)=  0.00068815
 Iteration  2 RMS(Cart)=  0.00078422 RMS(Int)=  0.00000085
 Iteration  3 RMS(Cart)=  0.00000021 RMS(Int)=  0.00000084
 Variable       Old X    -DE/DX   Delta X   Delta X   Delta X     New X
                                  (DIIS)     (GDIIS)  (Total)
    R1        2.57070  -0.00054   0.00000  -0.00077  -0.00077   2.56993
    R2        2.71049  -0.00006   0.00240   0.00235   0.00475   2.71524
    R3        3.68356  -0.00019  -0.00151  -0.00250  -0.00401   3.67955
    R4        2.08244  -0.00035  -0.00014  -0.00083  -0.00097   2.08148
    R5        4.11122  -0.00021  -0.00027  -0.00213  -0.00240   4.10882
    R6        3.28161   0.00010  -0.00085   0.00065  -0.00020   3.28140
    R7        3.28998   0.00003  -0.00053   0.00000  -0.00053   3.28946
    R8        3.28965  -0.00002  -0.00053  -0.00052  -0.00104   3.28861
    R9        5.18003   0.00009  -0.00073  -0.00027  -0.00100   5.17902
    A1        2.12120  -0.00073  -0.00179  -0.00397  -0.00577   2.11544
    A2        2.24729   0.00099   0.00235   0.00522   0.00757   2.25487
    A3        1.91468  -0.00026  -0.00055  -0.00125  -0.00180   1.91288
    A4        1.98841   0.00000  -0.00099  -0.00034  -0.00133   1.98707
    A5        2.25597   0.00036   0.00028   0.00143   0.00171   2.25768
    A6        2.03724  -0.00035   0.00071  -0.00101  -0.00030   2.03694
    A7        1.83116  -0.00025   0.00118  -0.00134  -0.00017   1.83099
    A8        1.95881   0.00032   0.00002   0.00112   0.00114   1.95994
    A9        2.02630  -0.00002   0.00008  -0.00049  -0.00042   2.02589
   A10        1.82605  -0.00014   0.00163  -0.00029   0.00134   1.82739
   A11        1.93219   0.00004   0.00031  -0.00014   0.00017   1.93237
   A12        1.95062   0.00009  -0.00001   0.00013   0.00012   1.95074
    D1        0.01857  -0.00004   0.00011  -0.00219  -0.00208   0.01649
    D2        3.09711  -0.00002   0.00007  -0.00065  -0.00059   3.09652
    D3       -3.11860  -0.00007  -0.00060  -0.00295  -0.00355  -3.12215
    D4       -0.04007  -0.00005  -0.00064  -0.00142  -0.00205  -0.04212
    D5        0.40521  -0.00005  -0.00958  -0.02700  -0.03658   0.36863
    D6        2.62040  -0.00005  -0.00864  -0.02786  -0.03649   2.58390
    D7       -2.80092  -0.00002  -0.00967  -0.02540  -0.03507  -2.83599
    D8       -0.58573  -0.00001  -0.00873  -0.02626  -0.03499  -0.62072
    D9        3.03972  -0.00009   0.00228  -0.04302  -0.04074   2.99898
   D10        1.01161   0.00001   0.00008  -0.04266  -0.04259   0.96903
   D11       -1.13760  -0.00018   0.00394  -0.04430  -0.04036  -1.17796
   D12        3.11748  -0.00008   0.00174  -0.04394  -0.04221   3.07527
         Item               Value     Threshold  Converged?
 Maximum Force            0.000986     0.000450     NO 
 RMS     Force            0.000280     0.000300     YES
 Maximum Displacement     0.133533     0.001800     NO 
 RMS     Displacement     0.042061     0.001200     NO 
 Predicted change in Energy=-1.693010D-05
 GradGradGradGradGradGradGradGradGradGradGradGradGradGradGradGradGradGrad

                          Input orientation:                          
 ---------------------------------------------------------------------
 Center     Atomic      Atomic             Coordinates (Angstroms)
 Number     Number       Type             X           Y           Z
 ---------------------------------------------------------------------
      1          6           0        1.111134   -2.319797   -0.091595
      2          6           0        0.053685   -1.506970    0.174067
      3          1           0       -0.903469   -2.041630    0.280029
      4          1           0        1.482631    1.231659   -0.204724
      5          1           0       -2.395651    3.459285    0.122762
      6          1           0       -3.709636    1.046397    0.340755
      7         50           0        0.016296    0.640378    0.513250
      8         50           0       -2.307827    1.792442   -0.371177
      9          9           0        0.941542   -3.739496   -0.233768
     10         35           0        2.987638   -1.858866   -0.331599
 ---------------------------------------------------------------------
                    Distance matrix (angstroms):
                    1          2          3          4          5
     1  C    0.000000
     2  C    1.359950   0.000000
     3  H    2.067392   1.101469   0.000000
     4  H    3.572625   3.112147   4.079569   0.000000
     5  H    6.763230   5.537650   5.701878   4.484488   0.000000
     6  H    5.895592   4.550829   4.173029   5.224127   2.756104
     7  Sn   3.213588   2.174292   2.844913   1.736445   3.730443
     8  Sn   5.355182   4.093916   4.134779   3.835330   1.740705
     9  F    1.436844   2.436964   2.559453   5.000600   7.942696
    10  Br   1.947133   2.997934   3.943122   3.439839   7.580830
                    6          7          8          9         10
     6  H    0.000000
     7  Sn   3.751955   0.000000
     8  Sn   1.740258   2.740622   0.000000
     9  F    6.698380   4.538437   6.417134   0.000000
    10  Br   7.331172   3.973521   6.432384   2.780800   0.000000
 Stoichiometry    C2H4BrFSn2
 Framework group  C1[X(C2H4BrFSn2)]
 Deg. of freedom    24
 Full point group                 C1      NOp   1
 Largest Abelian subgroup         C1      NOp   1
 Largest concise Abelian subgroup C1      NOp   1
                         Standard orientation:                         
[...]
     4   1    -0.17  -0.30  -0.20     0.39   0.68   0.47     0.00   0.00   0.00
     5   1    -0.45   0.47  -0.09    -0.15   0.15  -0.03     0.00   0.00   0.00
     6   1     0.23   0.49   0.35     0.12   0.26   0.19     0.00   0.00   0.00
     7  50     0.00   0.00   0.00     0.00  -0.01   0.00     0.00   0.00   0.00
     8  50     0.00  -0.01   0.00     0.00   0.00   0.00     0.00   0.00   0.00
     9   9     0.00   0.00   0.00     0.00   0.00   0.00     0.00   0.00   0.00
    10  35     0.00   0.00   0.00     0.00   0.00   0.00     0.00   0.00   0.00

 -------------------
 - Thermochemistry -
 -------------------
 Temperature   298.150 Kelvin.  Pressure   1.00000 Atm.
 Atom     1 has atomic number  6 and mass  12.00000
 Atom     2 has atomic number  6 and mass  12.00000
 Atom     3 has atomic number  1 and mass   1.00783
 Atom     4 has atomic number  1 and mass   1.00783
 Atom     5 has atomic number  1 and mass   1.00783
 Atom     6 has atomic number  1 and mass   1.00783
 Atom     7 has atomic number 50 and mass 117.90180
 Atom     8 has atomic number 50 and mass 117.90180
 Atom     9 has atomic number  9 and mass  18.99840
 Atom    10 has atomic number 35 and mass  78.91834
 Molecular mass:   361.75164 amu.
 Principal axes and moments of inertia in atomic units:
                           1         2         3
     Eigenvalues --   889.977148300.830708783.82986
           X            0.99997  -0.00818   0.00127
           Y            0.00810   0.99847   0.05476
           Z           -0.00172  -0.05475   0.99850
 This molecule is an asymmetric top.
 Rotational symmetry number  1.
 Warning -- assumption of classical behavior for rotation
           may cause significant error
 Rotational temperatures (Kelvin)      0.09732     0.01043     0.00986
 Rotational constants (GHZ):           2.02785     0.21742     0.20546
 Zero-point vibrational energy     111679.8 (Joules/Mol)
                                   26.69212 (Kcal/Mol)
 Warning -- explicit consideration of  14 degrees of freedom as
           vibrations may cause significant error
 Vibrational temperatures:     17.81    58.31   113.37   195.66   252.81
          (Kelvin)            297.37   387.70   475.94   482.49   554.32
                              630.39   647.34   693.01   882.31  1031.35
                             1112.41  1164.97  1362.39  1770.42  2246.71
                             2644.64  2654.30  2668.72  4519.23
 
 Zero-point correction=                           0.042537 (Hartree/Particle)
 Thermal correction to Energy=                    0.052543
 Thermal correction to Enthalpy=                  0.053487
 Thermal correction to Gibbs Free Energy=         0.001749
 Sum of electronic and zero-point Energies=           -197.365922
 Sum of electronic and thermal Energies=              -197.355915
 Sum of electronic and thermal Enthalpies=            -197.354971
 Sum of electronic and thermal Free Energies=         -197.406710
 
                     E (Thermal)             CV                S
                      KCal/Mol        Cal/Mol-Kelvin    Cal/Mol-Kelvin
 Total                   32.971             31.883            108.893
 Electronic               0.000              0.000              0.000
 Translational            0.889              2.981             43.551
 Rotational               0.889              2.981             32.540
 Vibrational             31.194             25.921             32.803
 Vibration     1          0.593              1.987              7.587
 Vibration     2          0.594              1.981              5.233
 Vibration     3          0.600              1.963              3.921
 Vibration     4          0.614              1.917              2.860
 Vibration     5          0.628              1.872              2.373
 Vibration     6          0.641              1.830              2.073
 Vibration     7          0.674              1.729              1.600
 Vibration     8          0.713              1.614              1.256
 Vibration     9          0.716              1.605              1.234
 Vibration    10          0.754              1.502              1.018
 Vibration    11          0.798              1.387              0.832
 Vibration    12          0.809              1.361              0.796
 Vibration    13          0.838              1.291              0.706
 Vibration    14          0.973              1.004              0.427
                       Q            Log10(Q)             Ln(Q)
 Total Bot       0.156906D+00         -0.804359         -1.852106
 Total V=0       0.576870D+19         18.761078         43.198979
 Vib (Bot)       0.201201D-15        -15.696369        -36.142225
 Vib (Bot)    1  0.167395D+02          1.223744          2.817774
 Vib (Bot)    2  0.510524D+01          0.708016          1.630268
 Vib (Bot)    3  0.261417D+01          0.417334          0.960946
 Vib (Bot)    4  0.149685D+01          0.175179          0.403364
 Vib (Bot)    5  0.114474D+01          0.058705          0.135174
 Vib (Bot)    6  0.962251D+00         -0.016712         -0.038480
 Vib (Bot)    7  0.717403D+00         -0.144237         -0.332118
 Vib (Bot)    8  0.564560D+00         -0.248290         -0.571709
 Vib (Bot)    9  0.555332D+00         -0.255447         -0.588189
 Vib (Bot)   10  0.467551D+00         -0.330171         -0.760248
 Vib (Bot)   11  0.395137D+00         -0.403252         -0.928522
 Vib (Bot)   12  0.381169D+00         -0.418882         -0.964511
 Vib (Bot)   13  0.346730D+00         -0.460009         -1.059209
 Vib (Bot)   14  0.240175D+00         -0.619471         -1.426386
 Vib (V=0)       0.739722D+04          3.869069          8.908860
 Vib (V=0)    1  0.172470D+02          1.236714          2.847639
 Vib (V=0)    2  0.562967D+01          0.750483          1.728050
 Vib (V=0)    3  0.316156D+01          0.499901          1.151064
 Vib (V=0)    4  0.207815D+01          0.317677          0.731479
 Vib (V=0)    5  0.174917D+01          0.242832          0.559140
 Vib (V=0)    6  0.158440D+01          0.199865          0.460207
 Vib (V=0)    7  0.137445D+01          0.138130          0.318055
 Vib (V=0)    8  0.125414D+01          0.098346          0.226450
 Vib (V=0)    9  0.124726D+01          0.095956          0.220947
 Vib (V=0)   10  0.118455D+01          0.073552          0.169360
 Vib (V=0)   11  0.113729D+01          0.055870          0.128645
 Vib (V=0)   12  0.112872D+01          0.052587          0.121085
 Vib (V=0)   13  0.110846D+01          0.044719          0.102970
 Vib (V=0)   14  0.105469D+01          0.023126          0.053250
 Electronic      0.100000D+01          0.000000          0.000000
 Translational   0.270440D+09          8.432071         19.415561
 Rotational      0.288362D+07          6.459939         14.874558
 ***** Axes restored to original set *****
 -------------------------------------------------------------------
 Center     Atomic                   Forces (Hartrees/Bohr)
 Number     Number              X              Y              Z
 -------------------------------------------------------------------
      1        6           0.000004383    0.000015956    0.000005393
      2        6           0.000000318   -0.000015666    0.000001091
      3        1           0.000006126    0.000003714   -0.000001841
      4        1          -0.000004408    0.000000586    0.000000090
      5        1           0.000009794   -0.000003050   -0.000000107
      6        1           0.000003501    0.000000191   -0.000004217
      7       50          -0.000002084   -0.000005685   -0.000005584
      8       50          -0.000009442    0.000001551    0.000005675
      9        9          -0.000002811    0.000006540   -0.000000140
     10       35          -0.000005376   -0.000004139   -0.000000361
 -------------------------------------------------------------------
 Cartesian Forces:  Max     0.000015956 RMS     0.000005910

 GradGradGradGradGradGradGradGradGradGradGradGradGradGradGradGradGradGrad
 Berny optimization.
 Internal  Forces:  Max     0.000023901 RMS     0.000008022
 Search for a local minimum.
 Step number   1 out of a maximum of    2
 All quantities printed in internal units (Hartrees-Bohrs-Radians)
 Second derivative matrix not updated -- analytic derivatives used.
     Eigenvalues ---    0.00085   0.00610   0.00970   0.01683   0.02633
     Eigenvalues ---    0.03240   0.04197   0.04866   0.06704   0.07472
     Eigenvalues ---    0.07618   0.09270   0.10838   0.11600   0.12875
     Eigenvalues ---    0.12931   0.12968   0.13580   0.15179   0.19837
     Eigenvalues ---    0.24143   0.30642   0.34999   0.558541000.00000
     Eigenvalues --- 1000.000001000.000001000.000001000.000001000.00000
     Eigenvalues --- 1000.000001000.000001000.00000
 Angle between quadratic step and forces=  60.91 degrees.
 Linear search not attempted -- first point.
 Iteration  1 RMS(Cart)=  0.00117805 RMS(Int)=  0.00000044
 Iteration  2 RMS(Cart)=  0.00000055 RMS(Int)=  0.00000002
 Variable       Old X    -DE/DX   Delta X   Delta X   Delta X     New X
                                 (Linear)    (Quad)   (Total)
    R1        2.56980  -0.00001   0.00000  -0.00002  -0.00002   2.56978
    R2        2.71246  -0.00001   0.00000  -0.00001  -0.00001   2.71245
    R3        3.68041  -0.00001   0.00000  -0.00005  -0.00005   3.68036
    R4        2.08144  -0.00001   0.00000  -0.00003  -0.00003   2.08141
    R5        4.10940  -0.00001   0.00000  -0.00009  -0.00009   4.10931
    R6        3.28247   0.00000   0.00000  -0.00002  -0.00002   3.28245
    R7        3.29065   0.00000   0.00000  -0.00001  -0.00001   3.29064
    R8        3.29024   0.00000   0.00000  -0.00007  -0.00007   3.29018
    R9        5.18291   0.00000   0.00000  -0.00010  -0.00010   5.18281
    A1        2.11546  -0.00001   0.00000  -0.00006  -0.00006   2.11540
    A2        2.25532   0.00001   0.00000   0.00007   0.00007   2.25539
    A3        1.91240   0.00000   0.00000  -0.00001  -0.00001   1.91240
    A4        1.98707   0.00000   0.00000   0.00003   0.00003   1.98710
    A5        2.26270  -0.00001   0.00000  -0.00013  -0.00013   2.26257
    A6        2.03192   0.00000   0.00000   0.00010   0.00010   2.03202
    A7        1.82800  -0.00001   0.00000  -0.00003  -0.00003   1.82797
    A8        1.96370   0.00002   0.00000   0.00067   0.00067   1.96437
    A9        2.02644  -0.00001   0.00000  -0.00033  -0.00033   2.02610
   A10        1.82283   0.00001   0.00000   0.00016   0.00016   1.82299
   A11        1.93214  -0.00002   0.00000  -0.00065  -0.00065   1.93149
   A12        1.94848   0.00001   0.00000   0.00032   0.00032   1.94880
    D1        0.01520   0.00000   0.00000   0.00003   0.00003   0.01523
    D2        3.09519   0.00000   0.00000   0.00002   0.00002   3.09521
    D3       -3.12468   0.00000   0.00000   0.00000   0.00000  -3.12468
    D4       -0.04469   0.00000   0.00000  -0.00001  -0.00001  -0.04470
    D5        0.33153   0.00000   0.00000   0.00062   0.00062   0.33215
    D6        2.54776   0.00000   0.00000   0.00060   0.00060   2.54837
    D7       -2.87298   0.00000   0.00000   0.00061   0.00061  -2.87237
    D8       -0.65674   0.00000   0.00000   0.00059   0.00059  -0.65615
    D9        3.02393   0.00000   0.00000   0.00054   0.00054   3.02447
   D10        1.00115   0.00000   0.00000   0.00056   0.00056   1.00171
   D11       -1.15359   0.00000   0.00000   0.00079   0.00079  -1.15280
   D12        3.10682   0.00000   0.00000   0.00081   0.00081   3.10763
         Item               Value     Threshold  Converged?
 Maximum Force            0.000024     0.000450     YES
 RMS     Force            0.000008     0.000300     YES
 Maximum Displacement     0.002583     0.001800     NO 
 RMS     Displacement     0.001178     0.001200     YES
 Predicted change in Energy=-2.382551D-08
 GradGradGradGradGradGradGradGradGradGradGradGradGradGradGradGradGradGrad

 1\1\GINC-MALLOS73\Freq\RMP2-FC\SDD\C2H4Br1F1Sn2\MARLIN\25-Oct-2024\0\\
 #N Geom=AllCheck Guess=TCheck SCRF=Check GenChk RMP2(FC)/SDD Freq\\Tit
 le Card Required\\0,1\C,1.1131948309,-2.3199552759,-0.1014285655\C,0.0
 566500068,-1.5137448468,0.1866889962\H,-0.8954159389,-2.0539165314,0.3
 090556822\H,1.4818007805,1.2285449851,-0.1547531344\H,-2.3877068924,3.
 4628777801,0.0862184628\H,-3.7181827334,1.0670121472,0.3423246251\Sn,0
 .0033236337,0.6321349398,0.5348835907\Sn,-2.3086745438,1.7876825312,-0
 .382536869\F,0.9490735541,-3.7388567923,-0.2431008502\Br,2.9822813026,
 -1.8483779371,-0.3793519379\\Version=EM64L-G09RevA.01\State=1-A\HF=-19
 6.9920678\MP2=-197.4084586\RMSD=9.166e-10\RMSF=5.910e-06\ZeroPoint=0.0
 425366\Thermal=0.0525433\Dipole=-0.373443,0.9205315,0.1265492\DipoleDe
 riv=1.6558023,-0.4513332,-0.1863656,0.0085915,1.3671486,0.03197,-0.260
 9487,0.2124923,0.080379,-0.9607045,0.5881578,0.1020054,0.2293978,-0.69
 86244,-0.0143589,0.3701137,-0.3287853,-0.2797437,-0.018907,-0.0745824,
 0.0203799,0.0155808,-0.0481617,0.0114616,0.0460165,-0.0388022,0.175460
 5,-0.3404701,-0.0757934,0.0642101,0.0459621,-0.2679772,-0.0213836,0.30
 40795,-0.0669725,-0.0486014,-0.2254389,0.0879454,0.0644258,0.1170282,-
 0.4597045,-0.0106326,0.2649558,-0.2487017,-0.0556261,-0.4221366,-0.030
 9348,0.0875564,-0.0226908,-0.2153144,-0.0233146,0.3735953,-0.1035923,-
 0.0681382,0.6754391,-0.0594769,-0.1228086,-0.4676408,1.1411248,0.04297
 57,-0.5772589,0.3238044,0.2048372,0.6398928,-0.0283069,-0.1508298,-0.0
 593792,0.6270901,0.0336346,-0.6472994,0.372352,0.1355468,-0.5392229,0.
 0023726,0.0452191,0.2232841,-1.3990855,-0.0477444,0.0473499,-0.0949927
 ,-0.1651063,-0.4642542,0.0419518,0.0762075,-0.0901336,-0.0464958,-0.00
 26078,0.0793963,-0.0268019,0.0209921\Polar=175.3572926,-46.4111726,124
 .8306689,24.1588097,-14.9393494,66.0282434\PG=C01 [X(C2H4Br1F1Sn2)]\NI
 mag=0\\0.52060143,-0.15700610,0.44761399,-0.09954269,0.07362982,0.1061
 4724,-0.32558084,0.19929361,0.07592536,0.62517788,0.15917021,-0.201287
 61,-0.04815057,-0.07002304,0.46307382,0.07098059,-0.05606866,-0.056730
 80,-0.11564976,0.06265279,0.09259703,-0.02430563,-0.01644533,0.0039478
 5,-0.25777631,-0.11199953,0.03220260,0.27676665,0.02364214,0.00193171,
 -0.00495693,-0.13829374,-0.10909975,0.01620208,0.12375814,0.11450943,0
 .00760227,0.00313506,0.00537003,0.03003131,0.01167885,-0.03241231,-0.0
 3552579,-0.01280633,0.02639026,-0.00231909,-0.00065665,0.00018673,0.00
 129843,0.00015234,0.00037610,0.00041293,0.00005733,0.00028670,0.098167
 49,-0.00221276,0.00255854,0.00101189,-0.00872924,-0.00242072,0.0040816
 4,0.00109459,-0.00307291,-0.00042394,0.03392921,0.02685179,-0.00025211
 ,0.00108875,-0.00007931,-0.00121510,-0.00211264,0.00064087,0.00006464,
 -0.00079977,0.00047159,-0.04095479,-0.01546180,0.02427279,0.00051019,0
 .00016658,-0.00046027,-0.00220868,0.00015269,-0.00188236,0.00010354,-0
 .00006852,0.00007446,-0.00039184,-0.00016834,-0.00101037,0.01206857,-0
 .00076059,0.00035980,0.00038261,0.00120539,-0.00008955,0.00077352,-0.0
 0006966,0.00009311,-0.00010109,0.00050440,0.00006240,0.00047455,-0.004
 55256,0.12054106,-0.00023010,0.00128660,0.00040517,-0.00149274,-0.0000
 9809,0.00083769,0.00013016,-0.00016410,-0.00020452,-0.00101773,0.00026
 069,-0.00106266,-0.00327700,0.02921233,0.01386487,0.00019630,-0.000432
 88,-0.00025469,-0.00043658,0.00033645,-0.00103008,-0.00002965,0.000161
 56,0.00007439,-0.00120415,0.00075569,-0.00186487,0.00096180,0.00036243
 ,0.00087857,0.08823754,0.00015934,0.00011947,0.00005394,-0.00041450,0.
 00020424,0.00040651,-0.00007178,0.00009901,0.00003135,0.00075804,-0.00
 023199,0.00134913,-0.00851258,-0.00392804,0.00459958,0.03977118,0.0330
 3315,-0.00101079,0.00083532,0.00011892,0.00004822,-0.00025159,-0.00148
 050,0.00007068,-0.00030225,-0.00005217,-0.00173292,0.00122525,0.000689
 76,-0.00203972,-0.00244622,0.00071478,-0.04022439,-0.01941006,0.025341
 78,0.00387900,0.01372264,0.00142040,-0.02749220,0.00151726,0.00621714,
 0.00232099,-0.01204735,-0.00211843,-0.09796039,-0.02645012,0.04834007,
 0.00340203,-0.00315052,-0.00083535,0.00022842,0.00099060,-0.00301243,0
 .18359526,0.00402050,-0.01567838,-0.00372280,0.00333554,-0.10696617,-0
 .02092949,0.00397705,-0.00498611,-0.00160117,-0.03248784,-0.02339182,0
 .01662021,0.00322251,-0.00099107,0.00276589,-0.00401050,0.00119025,0.0
 0028251,-0.00271313,0.16743365,0.00111482,-0.00497030,-0.00286371,0.00
 129333,-0.01137739,-0.01614134,0.00017897,0.00216634,0.00089344,0.0356
 7295,0.01298039,-0.02646202,0.00571254,-0.00397613,0.00021782,0.007313
 93,-0.00317572,0.00107338,-0.03191033,-0.00431140,0.05314105,-0.001251
 71,-0.00086409,0.00005577,0.00423998,-0.00117263,-0.00019158,-0.000120
 72,0.00024607,-0.00000647,0.00126607,0.00043171,-0.00285720,-0.0141929
 0,0.00615231,0.00617897,-0.08791416,-0.03267083,0.04777791,-0.06302392
 ,0.02683631,-0.01962010,0.15991691,-0.00098031,-0.00075963,0.00068070,
 0.00451830,-0.00107100,0.00202469,-0.00011359,-0.00016248,-0.00004118,
 -0.00366350,0.00150350,-0.00044200,0.00924518,-0.11557540,-0.03776896,
 -0.03756140,-0.03050368,0.02067519,0.02570313,-0.02121642,0.01063807,0
 .00272578,0.16783139,0.00125841,-0.00289895,-0.00037104,0.00401181,-0.
 00109486,0.00183355,-0.00031100,0.00084391,0.00027613,0.00722246,-0.00
 283181,0.00149546,0.00234369,-0.02403885,-0.01470570,0.03484123,0.0162
 2788,-0.02654266,-0.01916176,0.00902911,-0.01437684,-0.03089581,0.0047
 9098,0.05287393,-0.04938058,-0.02629060,0.00070993,0.00377556,0.031896
 09,0.00587005,0.00306703,0.00008365,-0.00184410,0.00048538,0.00048450,
 -0.00004539,-0.00010963,0.00011426,-0.00025174,0.00001322,-0.00004172,
 0.00010807,-0.00164494,-0.00013284,0.00044001,0.00065741,0.00008552,0.
 00038451,0.05924437,-0.00465561,-0.21315274,-0.02227183,-0.00128191,-0
 .04644536,-0.00771557,-0.00152214,0.00119681,0.00104233,-0.00028274,-0
 .00087421,-0.00039315,0.00048948,-0.00045844,-0.00021909,0.00050053,0.
 00006731,-0.00079770,0.00172838,0.00616829,0.00192603,-0.00156787,-0.0
 0032709,0.00061152,0.02124633,0.27180183,0.00342942,-0.01779055,-0.031
 80877,0.00205207,-0.01333115,0.01095621,-0.00221853,0.00104747,-0.0066
 6110,-0.00019152,-0.00071377,-0.00021943,0.00054751,-0.00026461,-0.000
 07050,0.00026588,-0.00007536,0.00016771,0.00062334,0.00163156,0.004993
 47,-0.00039117,-0.00059483,-0.00048924,-0.00548744,0.02771931,0.019530
 94,-0.12234907,-0.01148719,0.01801161,-0.02099724,-0.01002985,0.003107
 31,-0.00043881,0.00246071,0.00142567,0.00024520,0.00086475,-0.00020487
 ,-0.00014308,0.00019453,-0.00008303,-0.00005274,0.00003225,0.00001538,
 -0.00330425,-0.00204759,-0.00019611,0.00042304,0.00004089,0.00030645,-
 0.01610783,-0.01465446,0.00137045,0.16272478,-0.02137682,-0.02170516,0
 .00334316,0.01038959,0.00410210,-0.00142750,0.00139222,-0.00050881,-0.
 00091388,0.00168939,-0.00098458,-0.00032329,0.00002556,-0.00001386,0.0
 0012515,0.00011696,-0.00004972,0.00018954,0.00069910,-0.00156220,0.000
 10011,-0.00011677,0.00028083,-0.00063892,-0.02744518,-0.01797639,0.002
 37194,0.03462595,0.03841780,0.01665020,0.00175291,-0.02018772,0.004995
 50,0.00208466,-0.00010039,0.00146043,-0.00123042,0.00592866,0.00015203
 ,-0.00012855,0.00025294,-0.00000847,-0.00001611,0.00000305,0.00000004,
 -0.00000725,-0.00003101,0.00043735,0.00023558,-0.00047525,-0.00005032,
 0.00003735,0.00000642,0.00011610,0.00009814,0.00360072,-0.02375285,-0.
 00282632,0.01100258\\-0.00000438,-0.00001596,-0.00000539,-0.00000032,0
 .00001567,-0.00000109,-0.00000613,-0.00000371,0.00000184,0.00000441,-0
 .00000059,-0.00000009,-0.00000979,0.00000305,0.00000011,-0.00000350,-0
 .00000019,0.00000422,0.00000208,0.00000569,0.00000558,0.00000944,-0.00
 000155,-0.00000567,0.00000281,-0.00000654,0.00000014,0.00000538,0.0000
 0414,0.00000036\\\@


 ERWIN WITH HIS PSI CAN DO
 CALCULATIONS QUITE A FEW.
 BUT ONE THING HAS NOT BEEN SEEN
 JUST WHAT DOES PSI REALLY MEAN.
 -- WALTER HUCKEL, TRANS. BY FELIX BLOCH
 Job cpu time:  0 days  0 hours  4 minutes 30.2 seconds.
 File lengths (MBytes):  RWF=    197 Int=      0 D2E=      0 Chk=      2 Scr=      1
 Normal termination of Gaussian 09 at Fri Oct 25 10:43:48 2024.
