 Entering Gaussian System, Link 0=g09
 Initial command:
 /u/local/G09/g09/l1.exe /tmp/marlin/22654.mallos00.local/Gau-61951.inp -scrdir=/tmp/marlin/22654.mallos00.local/
 Entering Link 1 = /u/local/G09/g09/l1.exe PID=     61952.
  
 Copyright (c) 1988,1990,1992,1993,1995,1998,2003,2009, Gaussian, Inc.
                  All Rights Reserved.
  
 This is part of the Gaussian(R) 09 program.  It is based on
 the Gaussian(R) 03 system (copyright 2003, Gaussian, Inc.),
 the Gaussian(R) 98 system (copyright 1998, Gaussian, Inc.),
 the Gaussian(R) 94 system (copyright 1995, Gaussian, Inc.),
 the Gaussian 92(TM) system (copyright 1992, Gaussian, Inc.),
 the Gaussian 90(TM) system (copyright 1990, Gaussian, Inc.),
 the Gaussian 88(TM) system (copyright 1988, Gaussian, Inc.),
 the Gaussian 86(TM) system (copyright 1986, Carnegie Mellon
 University), and the Gaussian 82(TM) system (copyright 1983,
 Carnegie Mellon University). Gaussian is a federally registered
 trademark of Gaussian, Inc.
  
 This software contains proprietary and confidential information,
 including trade secrets, belonging to Gaussian, Inc.
  
 This software is provided under written license and may be
 used, copied, transmitted, or stored only in accord with that
 written license.
  
 The following legend is applicable only to US Government
 contracts under FAR:
  
                    RESTRICTED RIGHTS LEGEND
  
 Use, reproduction and disclosure by the US Government is
 subject to restrictions as set forth in subparagraphs (a)
 and (c) of the Commercial Computer Software - Restricted
 Rights clause in FAR 52.227-19.
  
 Gaussian, Inc.
 340 Quinnipiac St., Bldg. 40, Wallingford CT 06492
  
  
 ---------------------------------------------------------------
 Warning -- This program may not be used in any manner that
 competes with the business of Gaussian, Inc. or will provide
 assistance to any competitor of Gaussian, Inc.  The licensee
 of this program is prohibited from giving any competitor of
 Gaussian, Inc. access to this program.  By using this program,
 the user acknowledges that Gaussian, Inc. is engaged in the
 business of creating and licensing software in the field of
 computational chemistry and represents and warrants to the
 licensee that it is not a competitor of Gaussian, Inc. and that
 it will not use this program in any manner prohibited above.
 ---------------------------------------------------------------
  

 Cite this work as:
 Gaussian 09, Revision A.01,
 M. J. Frisch, G. W. Trucks, H. B. Schlegel, G. E. Scuseria, 
 M. A. Robb, J. R. Cheeseman, G. Scalmani, V. Barone, B. Mennucci, 
 G. A. Petersson, H. Nakatsuji, M. Caricato, X. Li, H. P. Hratchian, 
 A. F. Izmaylov, J. Bloino, G. Zheng, J. L. Sonnenberg, M. Hada, 
 M. Ehara, K. Toyota, R. Fukuda, J. Hasegawa, M. Ishida, T. Nakajima, 
 Y. Honda, O. Kitao, H. Nakai, T. Vreven, J. A. Montgomery, Jr., 
 J. E. Peralta, F. Ogliaro, M. Bearpark, J. J. Heyd, E. Brothers, 
 K. N. Kudin, V. N. Staroverov, R. Kobayashi, J. Normand, 
 K. Raghavachari, A. Rendell, J. C. Burant, S. S. Iyengar, J. Tomasi, 
 M. Cossi, N. Rega, J. M. Millam, M. Klene, J. E. Knox, J. B. Cross, 
 V. Bakken, C. Adamo, J. Jaramillo, R. Gomperts, R. E. Stratmann, 
 O. Yazyev, A. J. Austin, R. Cammi, C. Pomelli, J. W. Ochterski, 
 R. L. Martin, K. Morokuma, V. G. Zakrzewski, G. A. Voth, 
 P. Salvador, J. J. Dannenberg, S. Dapprich, A. D. Daniels, 
 O. Farkas, J. B. Foresman, J. V. Ortiz, J. Cioslowski, 
 and D. J. Fox, Gaussian, Inc., Wallingford CT, 2009.
 
 ******************************************
 Gaussian 09:  EM64L-G09RevA.01  8-May-2009
                24-Oct-2024 
 ******************************************
 %mem=103GB
 %nproc=20
 Will use up to   20 processors via shared memory.
 %chk=2-lanl2dz.chk
 -----------------------------------------------
 # opt freq=noraman hf/lanl2dz geom=connectivity
 -----------------------------------------------
 1/18=20,19=15,38=1,57=2/1,3;
 2/9=110,12=2,17=6,18=5,40=1/2;
 3/5=6,6=3,11=9,16=1,25=1,30=1,71=1/1,2,3;
 4//1;
 5/5=2,38=5/2;
 6/7=2,8=2,9=2,10=2,28=1/1;
 7//1,2,3,16;
 1/18=20,19=15/3(2);
 2/9=110/2;
 99//99;
 2/9=110/2;
 3/5=6,6=3,11=9,16=1,25=1,30=1,71=1/1,2,3;
 4/5=5,16=3/1;
 5/5=2,38=5/2;
 7//1,2,3,16;
 1/18=20,19=15/3(-5);
 2/9=110/2;
 6/7=2,8=2,9=2,10=2,19=2,28=1/1;
 99/9=1/99;
 -------------------
 Title Card Required
 -------------------
 Symbolic Z-matrix:
 Charge =  0 Multiplicity = 1
 C                     2.25546   2.98342   0. 
 C                     1.95702   1.67669   0. 
 H                    -1.10528   2.09895  -0.49354 
 H                    -2.2088   -2.08731   0. 
 H                     0.57987  -2.78595   0. 
 Sn                    0.        0.91451   0. 
 Sn                   -0.60005  -1.57956   0. 
 Br                    0.9248    4.35361   0. 
 H                     3.26949   3.32494   0. 
 F                     2.96874   0.78286   0. 
 

 GradGradGradGradGradGradGradGradGradGradGradGradGradGradGradGradGradGrad
 Berny optimization.
 Initialization pass.
                           ----------------------------
                           !    Initial Parameters    !
                           ! (Angstroms and Degrees)  !
 --------------------------                            --------------------------
 ! Name  Definition              Value          Derivative Info.                !
 --------------------------------------------------------------------------------
 ! R1    R(1,2)                  1.3404         estimate D2E/DX2                !
 ! R2    R(1,8)                  1.91           estimate D2E/DX2                !
 ! R3    R(1,9)                  1.07           estimate D2E/DX2                !
 ! R4    R(2,6)                  2.1002         estimate D2E/DX2                !
 ! R5    R(2,10)                 1.35           estimate D2E/DX2                !
 ! R6    R(3,6)                  1.6935         estimate D2E/DX2                !
 ! R7    R(4,7)                  1.687          estimate D2E/DX2                !
 ! R8    R(5,7)                  1.6875         estimate D2E/DX2                !
 ! R9    R(6,7)                  2.5652         estimate D2E/DX2                !
 ! A1    A(2,1,8)              122.9738         estimate D2E/DX2                !
 ! A2    A(2,1,9)              121.4784         estimate D2E/DX2                !
 ! A3    A(8,1,9)              115.5478         estimate D2E/DX2                !
 ! A4    A(1,2,6)              124.1436         estimate D2E/DX2                !
 ! A5    A(1,2,10)             118.5949         estimate D2E/DX2                !
 ! A6    A(6,2,10)             117.2615         estimate D2E/DX2                !
 ! A7    A(2,6,3)              110.7529         estimate D2E/DX2                !
 ! A8    A(2,6,7)              124.8064         estimate D2E/DX2                !
 ! A9    A(3,6,7)              121.8242         estimate D2E/DX2                !
 ! A10   A(4,7,5)              116.8478         estimate D2E/DX2                !
 ! A11   A(4,7,6)              121.0443         estimate D2E/DX2                !
 ! A12   A(5,7,6)              122.1079         estimate D2E/DX2                !
 ! D1    D(8,1,2,6)              0.0            estimate D2E/DX2                !
 ! D2    D(8,1,2,10)           180.0            estimate D2E/DX2                !
 ! D3    D(9,1,2,6)            180.0            estimate D2E/DX2                !
 ! D4    D(9,1,2,10)             0.0            estimate D2E/DX2                !
 ! D5    D(1,2,6,3)             18.1582         estimate D2E/DX2                !
 ! D6    D(1,2,6,7)            180.0            estimate D2E/DX2                !
 ! D7    D(10,2,6,3)          -161.8418         estimate D2E/DX2                !
 ! D8    D(10,2,6,7)             0.0            estimate D2E/DX2                !
 ! D9    D(2,6,7,4)            180.0            estimate D2E/DX2                !
 ! D10   D(2,6,7,5)              0.0            estimate D2E/DX2                !
 ! D11   D(3,6,7,4)            -20.0587         estimate D2E/DX2                !
 ! D12   D(3,6,7,5)            159.9413         estimate D2E/DX2                !
 --------------------------------------------------------------------------------
 Trust Radius=3.00D-01 FncErr=1.00D-07 GrdErr=1.00D-07
 Number of steps in this run=  43 maximum allowed number of steps= 100.
 GradGradGradGradGradGradGradGradGradGradGradGradGradGradGradGradGradGrad

                          Input orientation:                          
 ---------------------------------------------------------------------
 Center     Atomic      Atomic             Coordinates (Angstroms)
 Number     Number       Type             X           Y           Z
 ---------------------------------------------------------------------
      1          6           0        2.255461    2.983417    0.000000
      2          6           0        1.957023    1.676688    0.000000
      3          1           0       -1.105277    2.098947   -0.493536
      4          1           0       -2.208804   -2.087312    0.000000
      5          1           0        0.579873   -2.785954    0.000000
      6         50           0        0.000000    0.914514    0.000000
      7         50           0       -0.600048   -1.579560    0.000000
      8         35           0        0.924800    4.353615    0.000000
      9          1           0        3.269493    3.324942    0.000000
     10          9           0        2.968740    0.782860    0.000000
 ---------------------------------------------------------------------
                    Distance matrix (angstroms):
                    1          2          3          4          5
     1  C    0.000000
     2  C    1.340375   0.000000
     3  H    3.510046   3.130425   0.000000
     4  H    6.755883   5.614429   4.357306   0.000000
     5  H    6.007765   4.670301   5.190912   2.874860   0.000000
     6  Sn   3.060631   2.100202   1.693546   3.726899   3.745626
     7  Sn   5.382814   4.140261   3.745697   1.686982   1.687483
     8  Br   1.910000   2.869045   3.073812   7.162751   7.147896
     9  H    1.070000   2.106969   4.570039   7.700924   6.676609
    10  F    2.313270   1.350000   4.309673   5.919870   4.294546
                    6          7          8          9         10
     6  Sn   0.000000
     7  Sn   2.565241   0.000000
     8  Br   3.561273   6.125987   0.000000
     9  H    4.061988   6.247199   2.560420   0.000000
    10  F    2.971658   4.279869   4.114362   2.559811   0.000000
 Stoichiometry    C2H4BrFSn2
 Framework group  C1[X(C2H4BrFSn2)]
 Deg. of freedom    24
 Full point group                 C1      NOp   1
 Largest Abelian subgroup         C1      NOp   1
 Largest concise Abelian subgroup C1      NOp   1
                         Standard orientation:                         
 ---------------------------------------------------------------------
 Center     Atomic      Atomic             Coordinates (Angstroms)
 Number     Number       Type             X           Y           Z
 ---------------------------------------------------------------------
      1          6           0        2.519142    1.173872    0.005808
      2          6           0        1.185233    1.305358    0.007374
      3          1           0        0.614438   -1.736739    0.475781
      4          1           0       -3.705844   -1.451222   -0.013870
      5          1           0       -3.483782    1.414950    0.009934
      6         50           0       -0.158381   -0.308762   -0.005602
      7         50           0       -2.713988   -0.086667   -0.002850
      8         35           0        3.396462   -0.522655   -0.008637
      9          1           0        3.164699    2.027165    0.012690
     10          9           0        0.658505    2.548316    0.017916
 ---------------------------------------------------------------------
 Rotational constants (GHZ):      2.4625654      0.2633342      0.2379490
 Standard basis: LANL2DZ (5D, 7F)
 There are    59 symmetry adapted basis functions of A   symmetry.
 Integral buffers will be    131072 words long.
 Raffenetti 1 integral format.
 Two-electron integral symmetry is turned on.
    59 basis functions,   127 primitive gaussians,    59 cartesian basis functions
    20 alpha electrons       20 beta electrons
       nuclear repulsion energy       135.7754621728 Hartrees.
 NAtoms=   10 NActive=   10 NUniq=   10 SFac= 7.50D-01 NAtFMM=   80 NAOKFM=F Big=F
 One-electron integrals computed using PRISM.
   1 Symmetry operations used in ECPInt.
 ECPInt:  NShTT=     630 NPrTT=    3262 LenC2=     625 LenP2D=    2695.
 LDataN:  DoStor=T MaxTD1= 4 Len=   56
 NBasis=    59 RedAO= T  NBF=    59
 NBsUse=    59 1.00D-06 NBFU=    59
 Harris functional with IExCor=  205 diagonalized for initial guess.
 ExpMin= 6.30D-02 ExpMax= 1.00D+04 ExpMxC= 3.50D+02 IAcc=2 IRadAn=         0 AccDes= 0.00D+00
 HarFok:  IExCor=  205 AccDes= 0.00D+00 IRadAn=         0 IDoV= 1
 ScaDFX=  1.000000  1.000000  1.000000  1.000000
 Defaulting to unpruned grid for atomic number  50.
 Defaulting to unpruned grid for atomic number  50.
 Defaulting to unpruned grid for atomic number  50.
 Defaulting to unpruned grid for atomic number  50.
 Defaulting to unpruned grid for atomic number  50.
 Defaulting to unpruned grid for atomic number  50.
 Defaulting to unpruned grid for atomic number  50.
 Defaulting to unpruned grid for atomic number  50.
 Defaulting to unpruned grid for atomic number  50.
 Defaulting to unpruned grid for atomic number  50.
 Defaulting to unpruned grid for atomic number  50.
 Defaulting to unpruned grid for atomic number  50.
 Defaulting to unpruned grid for atomic number  50.
 Defaulting to unpruned grid for atomic number  50.
 Defaulting to unpruned grid for atomic number  50.
 Defaulting to unpruned grid for atomic number  50.
 Defaulting to unpruned grid for atomic number  50.
 Defaulting to unpruned grid for atomic number  50.
 Defaulting to unpruned grid for atomic number  50.
 Defaulting to unpruned grid for atomic number  50.
 FoFCou: FMM=F IPFlag=           0 FMFlag=      100000 FMFlg1=           0
         NFxFlg=           0 DoJE=T BraDBF=F KetDBF=T FulRan=T
         Omega=  0.000000  0.000000  1.000000  0.000000  0.000000 ICntrl=     500 IOpCl=  0
         NMat0=    1 NMatS0=    1 NMatT0=    0 NMatD0=    1 NMtDS0=    0 NMtDT0=    0
         I1Cent=           4 NGrid=           0.
 Petite list used in FoFCou.
 Initial guess orbital symmetries:
       Occupied  (A) (A) (A) (A) (A) (A) (A) (A) (A) (A) (A) (A)
                 (A) (A) (A) (A) (A) (A) (A) (A)
       Virtual   (A) (A) (A) (A) (A) (A) (A) (A) (A) (A) (A) (A)
                 (A) (A) (A) (A) (A) (A) (A) (A) (A) (A) (A) (A)
                 (A) (A) (A) (A) (A) (A) (A) (A) (A) (A) (A) (A)
                 (A) (A) (A)
 The electronic state of the initial guess is 1-A.
 Requested convergence on RMS density matrix=1.00D-08 within 128 cycles.
 Requested convergence on MAX density matrix=1.00D-06.
 Requested convergence on             energy=1.00D-06.
 No special actions if energy rises.
 Keep R1 ints in memory in canonical form, NReq=2397586.
 SCF Done:  E(RHF) =  -196.757374730     A.U. after   15 cycles
             Convg  =    0.5554D-08             -V/T =  2.0701

 **********************************************************************

            Population analysis using the SCF density.

 **********************************************************************

 Orbital symmetries:
       Occupied  (A) (A) (A) (A) (A) (A) (A) (A) (A) (A) (A) (A)
                 (A) (A) (A) (A) (A) (A) (A) (A)
       Virtual   (A) (A) (A) (A) (A) (A) (A) (A) (A) (A) (A) (A)
                 (A) (A) (A) (A) (A) (A) (A) (A) (A) (A) (A) (A)
                 (A) (A) (A) (A) (A) (A) (A) (A) (A) (A) (A) (A)
                 (A) (A) (A)
 The electronic state is 1-A.
 Alpha  occ. eigenvalues --  -26.31688 -11.35852 -11.31324  -1.64367  -1.11845
 Alpha  occ. eigenvalues --   -0.99032  -0.81880  -0.73445  -0.71174  -0.70454
 Alpha  occ. eigenvalues --   -0.68170  -0.60319  -0.54395  -0.49072  -0.48584
 Alpha  occ. eigenvalues --   -0.47076  -0.43637  -0.41312  -0.37881  -0.25181
 Alpha virt. eigenvalues --   -0.00020   0.07684   0.09460   0.13590   0.14652
 Alpha virt. eigenvalues --    0.15206   0.17355   0.26525   0.26903   0.29280
 Alpha virt. eigenvalues --    0.31930   0.32420   0.34614   0.37001   0.38439
 Alpha virt. eigenvalues --    0.40776   0.48097   0.50351   0.51525   0.58183
 Alpha virt. eigenvalues --    0.63262   0.68010   0.70990   0.71530   0.75897
 Alpha virt. eigenvalues --    0.84825   0.97228   1.16168   1.19485   1.23057
 Alpha virt. eigenvalues --    1.24679   1.29709   1.36775   1.39234   1.48466
 Alpha virt. eigenvalues --    2.37157  12.16379  13.50815  20.04259
          Condensed to atoms (all electrons):
              1          2          3          4          5          6
     1  C    5.693968   0.262137   0.002787  -0.000001   0.000003  -0.128295
     2  C    0.262137   5.411300  -0.014350   0.000045   0.000405   0.295089
     3  H    0.002787  -0.014350   0.780103   0.000050   0.000010   0.377520
     4  H   -0.000001   0.000045   0.000050   0.790618  -0.006518  -0.015803
     5  H    0.000003   0.000405   0.000010  -0.006518   0.785257  -0.018811
     6  Sn  -0.128295   0.295089   0.377520  -0.015803  -0.018811   2.510939
     7  Sn   0.000154  -0.030583  -0.016814   0.362390   0.367153   0.532477
     8  Br   0.322714  -0.113150  -0.010603   0.000000   0.000000   0.000572
     9  H    0.346966  -0.025976  -0.000016   0.000000   0.000000   0.004041
    10  F   -0.028628   0.138822   0.000096   0.000000  -0.000013  -0.037251
              7          8          9         10
     1  C    0.000154   0.322714   0.346966  -0.028628
     2  C   -0.030583  -0.113150  -0.025976   0.138822
     3  H   -0.016814  -0.010603  -0.000016   0.000096
     4  H    0.362390   0.000000   0.000000   0.000000
     5  H    0.367153   0.000000   0.000000  -0.000013
     6  Sn   0.532477   0.000572   0.004041  -0.037251
     7  Sn   2.493147   0.000367  -0.000024   0.002712
     8  Br   0.000367   6.810764  -0.047745   0.002223
     9  H   -0.000024  -0.047745   0.438388  -0.002951
    10  F    0.002712   0.002223  -0.002951   9.243115
 Mulliken atomic charges:
              1
     1  C   -0.471804
     2  C    0.076262
     3  H   -0.118784
     4  H   -0.130782
     5  H   -0.127484
     6  Sn   0.479523
     7  Sn   0.289023
     8  Br   0.034857
     9  H    0.287315
    10  F   -0.318124
 Sum of Mulliken atomic charges =   0.00000
 Mulliken charges with hydrogens summed into heavy atoms:
              1
     1  C   -0.184490
     2  C    0.076262
     6  Sn   0.360739
     7  Sn   0.030757
     8  Br   0.034857
    10  F   -0.318124
 Sum of Mulliken charges with hydrogens summed into heavy atoms =   0.00000
 Electronic spatial extent (au):  <R**2>=           1181.2718
 Charge=              0.0000 electrons
 Dipole moment (field-independent basis, Debye):
    X=             -0.8180    Y=             -0.7006    Z=             -0.2673  Tot=              1.1097
 Quadrupole moment (field-independent basis, Debye-Ang):
   XX=            -64.6104   YY=            -71.4160   ZZ=            -70.8912
   XY=              3.2104   XZ=              0.3235   YZ=             -0.0326
 Traceless Quadrupole moment (field-independent basis, Debye-Ang):
   XX=              4.3622   YY=             -2.4435   ZZ=             -1.9187
   XY=              3.2104   XZ=              0.3235   YZ=             -0.0326
 Octapole moment (field-independent basis, Debye-Ang**2):
  XXX=            -88.9181  YYY=            -51.4667  ZZZ=             -1.2723  XYY=            -15.3040
  XXY=              0.5228  XXZ=             -0.5680  XZZ=            -25.5495  YZZ=            -11.2178
  YYZ=             -0.8920  XYZ=              0.5739
 Hexadecapole moment (field-independent basis, Debye-Ang**3):
 XXXX=          -2320.3306 YYYY=           -547.8340 ZZZZ=           -148.3069 XXXY=            -12.2414
 XXXZ=             -2.5677 YYYX=            -41.4842 YYYZ=              0.8380 ZZZX=              0.0723
 ZZZY=              0.3218 XXYY=           -445.0260 XXZZ=           -427.7021 YYZZ=           -109.6948
 XXYZ=              0.4508 YYXZ=             -0.6920 ZZXY=            -17.2959
 N-N= 1.357754621728D+02 E-N=-7.280038351958D+02  KE= 1.838719677568D+02
   1 Symmetry operations used in ECPInt.
 ECPInt:  NShTT=     630 NPrTT=    3262 LenC2=     625 LenP2D=    2695.
 LDataN:  DoStor=T MaxTD1= 5 Len=  102
 Calling FoFJK, ICntrl=      2127 FMM=F ISym2X=0 I1Cent= 0 IOpClX= 0 NMat=1 NMatS=1 NMatT=0.
 ***** Axes restored to original set *****
 -------------------------------------------------------------------
 Center     Atomic                   Forces (Hartrees/Bohr)
 Number     Number              X              Y              Z
 -------------------------------------------------------------------
      1        6           0.011326828   -0.027227100    0.000052195
      2        6          -0.025956726    0.041417014   -0.002648600
      3        1           0.000249140   -0.005290547    0.002832871
      4        1           0.000158551    0.000841960    0.002066471
      5        1          -0.000828307   -0.000366215    0.005563366
      6       50          -0.013654132   -0.004059112    0.000556813
      7       50           0.003752853   -0.001779219   -0.010132152
      8       35          -0.000598947    0.011364111    0.000845658
      9        1           0.000025055    0.003507391   -0.000042598
     10        9           0.025525684   -0.018408283    0.000905977
 -------------------------------------------------------------------
 Cartesian Forces:  Max     0.041417014 RMS     0.012643183

 GradGradGradGradGradGradGradGradGradGradGradGradGradGradGradGradGradGrad
 Berny optimization.
 Internal  Forces:  Max     0.033253910 RMS     0.010765080
 Search for a local minimum.
 Step number   1 out of a maximum of   43
 All quantities printed in internal units (Hartrees-Bohrs-Radians)
 Mixed Optimization -- RFO/linear search
 Second derivative matrix not updated -- first step.
     Eigenvalues ---    0.00230   0.00230   0.00230   0.00455   0.01570
     Eigenvalues ---    0.02877   0.02877   0.11426   0.13078   0.13270
     Eigenvalues ---    0.13286   0.13996   0.15543   0.16000   0.16000
     Eigenvalues ---    0.16000   0.17771   0.22000   0.22129   0.25000
     Eigenvalues ---    0.25000   0.37230   0.55021   0.571211000.00000
     Eigenvalues --- 1000.000001000.000001000.000001000.000001000.00000
     Eigenvalues --- 1000.000001000.000001000.00000
 RFO step:  Lambda=-1.89268056D-02 EMin= 2.30000000D-03
 Linear search not attempted -- first point.
 Maximum step size (   0.300) exceeded in Quadratic search.
    -- Step size scaled by   0.513
 Iteration  1 RMS(Cart)=  0.10974205 RMS(Int)=  0.00701553
 Iteration  2 RMS(Cart)=  0.00687396 RMS(Int)=  0.00255061
 Iteration  3 RMS(Cart)=  0.00002272 RMS(Int)=  0.00255056
 Iteration  4 RMS(Cart)=  0.00000012 RMS(Int)=  0.00255056
 Variable       Old X    -DE/DX   Delta X   Delta X   Delta X     New X
                                 (Linear)    (Quad)   (Total)
    R1        2.53294  -0.00965   0.00000  -0.00839  -0.00839   2.52455
    R2        3.60938   0.00857   0.00000   0.02236   0.02236   3.63174
    R3        2.02201   0.00114   0.00000   0.00150   0.00150   2.02351
    R4        3.96881   0.01348   0.00000   0.04354   0.04354   4.01235
    R5        2.55113   0.03132   0.00000   0.02823   0.02823   2.57936
    R6        3.20034  -0.00469   0.00000  -0.01607  -0.01607   3.18427
    R7        3.18793  -0.00040   0.00000  -0.00137  -0.00137   3.18657
    R8        3.18888  -0.00032   0.00000  -0.00107  -0.00107   3.18781
    R9        4.84760   0.00055   0.00000   0.00210   0.00210   4.84971
    A1        2.14630   0.01578   0.00000   0.03389   0.03387   2.18016
    A2        2.12020  -0.00454   0.00000  -0.00733  -0.00735   2.11284
    A3        2.01669  -0.01124   0.00000  -0.02656  -0.02658   1.99011
    A4        2.16671   0.03325   0.00000   0.06344   0.06342   2.23013
    A5        2.06987  -0.02059   0.00000  -0.03928  -0.03931   2.03057
    A6        2.04660  -0.01267   0.00000  -0.02417  -0.02419   2.02240
    A7        1.93300   0.01028   0.00000   0.02572   0.02571   1.95872
    A8        2.17828  -0.01137   0.00000  -0.02424  -0.02424   2.15405
    A9        2.12623   0.00064   0.00000  -0.00243  -0.00241   2.12382
   A10        2.03938  -0.00010   0.00000  -0.00028  -0.00884   2.03054
   A11        2.11262  -0.00251   0.00000  -0.00719  -0.01551   2.09711
   A12        2.13119   0.00261   0.00000   0.00747  -0.00084   2.13034
    D1        0.00000   0.00078   0.00000   0.00637   0.00640   0.00640
    D2        3.14159   0.00178   0.00000   0.02117   0.02114  -3.12045
    D3        3.14159  -0.00046   0.00000  -0.00701  -0.00698   3.13462
    D4        0.00000   0.00054   0.00000   0.00780   0.00777   0.00777
    D5        0.31692   0.00155   0.00000   0.02393   0.02400   0.34092
    D6        3.14159   0.00072   0.00000   0.02156   0.02156  -3.12004
    D7       -2.82467   0.00056   0.00000   0.00931   0.00932  -2.81536
    D8        0.00000  -0.00027   0.00000   0.00694   0.00687   0.00687
    D9        3.14159  -0.00300   0.00000  -0.06895  -0.06812   3.07347
   D10        0.00000   0.00734   0.00000   0.18088   0.17999   0.17999
   D11       -0.35009  -0.00264   0.00000  -0.06748  -0.06659  -0.41668
   D12        2.79150   0.00769   0.00000   0.18235   0.18152   2.97302
         Item               Value     Threshold  Converged?
 Maximum Force            0.033254     0.000450     NO 
 RMS     Force            0.010765     0.000300     NO 
 Maximum Displacement     0.266770     0.001800     NO 
 RMS     Displacement     0.110012     0.001200     NO 
 Predicted change in Energy=-8.037801D-03
 GradGradGradGradGradGradGradGradGradGradGradGradGradGradGradGradGradGrad

                          Input orientation:                          
 ---------------------------------------------------------------------
 Center     Atomic      Atomic             Coordinates (Angstroms)
 Number     Number       Type             X           Y           Z
 ---------------------------------------------------------------------
      1          6           0        2.272579    2.986105    0.009241
      2          6           0        1.905158    1.702491   -0.036136
      3          1           0       -1.209168    2.060025   -0.512946
      4          1           0       -2.176999   -2.139289    0.001661
      5          1           0        0.616408   -2.764525    0.141169
      6         50           0       -0.065972    0.913375   -0.046400
      7         50           0       -0.581937   -1.600180   -0.091105
      8         35           0        1.060169    4.475137    0.088529
      9          1           0        3.306428    3.264872    0.015861
     10          9           0        2.914594    0.784147   -0.063409
 ---------------------------------------------------------------------
                    Distance matrix (angstroms):
                    1          2          3          4          5
     1  C    0.000000
     2  C    1.335935   0.000000
     3  H    3.640449   3.170837   0.000000
     4  H    6.787376   5.605775   4.340018   0.000000
     5  H    5.985822   4.652585   5.199700   2.865921   0.000000
     6  Sn   3.125400   2.123244   1.685043   3.711806   3.745367
     7  Sn   5.402994   4.134767   3.737441   1.686258   1.686915
     8  Br   1.921833   2.901226   3.368149   7.364607   7.253441
     9  H    1.070793   2.099355   4.703393   7.698904   6.603449
    10  F    2.294795   1.364940   4.339973   5.871544   4.232798
                    6          7          8          9         10
     6  Sn   0.000000
     7  Sn   2.566355   0.000000
     8  Br   3.737987   6.295892   0.000000
     9  H    4.111751   6.228929   2.552588   0.000000
    10  F    2.983414   4.232199   4.133448   2.512731   0.000000
 Stoichiometry    C2H4BrFSn2
 Framework group  C1[X(C2H4BrFSn2)]
 Deg. of freedom    24
 Full point group                 C1      NOp   1
 Largest Abelian subgroup         C1      NOp   1
 Largest concise Abelian subgroup C1      NOp   1
                         Standard orientation:                         
 ---------------------------------------------------------------------
 Center     Atomic      Atomic             Coordinates (Angstroms)
 Number     Number       Type             X           Y           Z
 ---------------------------------------------------------------------
      1          6           0        2.512651    1.169661    0.014413
      2          6           0        1.178471    1.237186    0.025611
      3          1           0        0.497831   -1.821653    0.509800
      4          1           0       -3.774481   -1.384426   -0.116248
      5          1           0       -3.459334    1.459934   -0.270527
      6         50           0       -0.205510   -0.372975    0.013800
      7         50           0       -2.751176   -0.048516   -0.008284
      8         35           0        3.531261   -0.459518   -0.026220
      9          1           0        3.110754    2.057844    0.015799
     10          9           0        0.635402    2.489434    0.029212
 ---------------------------------------------------------------------
 Rotational constants (GHZ):      2.5570425      0.2504665      0.2282146
 Standard basis: LANL2DZ (5D, 7F)
 There are    59 symmetry adapted basis functions of A   symmetry.
 Integral buffers will be    131072 words long.
 Raffenetti 1 integral format.
 Two-electron integral symmetry is turned on.
    59 basis functions,   127 primitive gaussians,    59 cartesian basis functions
    20 alpha electrons       20 beta electrons
       nuclear repulsion energy       134.9931717900 Hartrees.
 NAtoms=   10 NActive=   10 NUniq=   10 SFac= 7.50D-01 NAtFMM=   80 NAOKFM=F Big=F
 One-electron integrals computed using PRISM.
   1 Symmetry operations used in ECPInt.
 ECPInt:  NShTT=     630 NPrTT=    3262 LenC2=     625 LenP2D=    2694.
 LDataN:  DoStor=T MaxTD1= 4 Len=   56
 NBasis=    59 RedAO= T  NBF=    59
 NBsUse=    59 1.00D-06 NBFU=    59
 Initial guess read from the read-write file.
 B after Tr=     0.000000    0.000000    0.000000
         Rot=    1.000000    0.000000    0.000000    0.000000 Ang=   0.00 deg.
 Initial guess orbital symmetries:
       Occupied  (A) (A) (A) (A) (A) (A) (A) (A) (A) (A) (A) (A)
                 (A) (A) (A) (A) (A) (A) (A) (A)
       Virtual   (A) (A) (A) (A) (A) (A) (A) (A) (A) (A) (A) (A)
                 (A) (A) (A) (A) (A) (A) (A) (A) (A) (A) (A) (A)
                 (A) (A) (A) (A) (A) (A) (A) (A) (A) (A) (A) (A)
                 (A) (A) (A)
 Harris functional with IExCor=  205 diagonalized for initial guess.
 ExpMin= 6.30D-02 ExpMax= 1.00D+04 ExpMxC= 3.50D+02 IAcc=2 IRadAn=         0 AccDes= 0.00D+00
 HarFok:  IExCor=  205 AccDes= 0.00D+00 IRadAn=         0 IDoV= 1
 ScaDFX=  1.000000  1.000000  1.000000  1.000000
 Defaulting to unpruned grid for atomic number  50.
 Defaulting to unpruned grid for atomic number  50.
 Defaulting to unpruned grid for atomic number  50.
 Defaulting to unpruned grid for atomic number  50.
 Defaulting to unpruned grid for atomic number  50.
 Defaulting to unpruned grid for atomic number  50.
 Defaulting to unpruned grid for atomic number  50.
 Defaulting to unpruned grid for atomic number  50.
 Defaulting to unpruned grid for atomic number  50.
 Defaulting to unpruned grid for atomic number  50.
 Defaulting to unpruned grid for atomic number  50.
 Defaulting to unpruned grid for atomic number  50.
 Defaulting to unpruned grid for atomic number  50.
 Defaulting to unpruned grid for atomic number  50.
 Defaulting to unpruned grid for atomic number  50.
 Defaulting to unpruned grid for atomic number  50.
 Defaulting to unpruned grid for atomic number  50.
 Defaulting to unpruned grid for atomic number  50.
 Defaulting to unpruned grid for atomic number  50.
 Defaulting to unpruned grid for atomic number  50.
 FoFCou: FMM=F IPFlag=           0 FMFlag=      100000 FMFlg1=           0
         NFxFlg=           0 DoJE=T BraDBF=F KetDBF=T FulRan=T
         Omega=  0.000000  0.000000  1.000000  0.000000  0.000000 ICntrl=     500 IOpCl=  0
         NMat0=    1 NMatS0=    1 NMatT0=    0 NMatD0=    1 NMtDS0=    0 NMtDT0=    0
         I1Cent=           4 NGrid=           0.
 Petite list used in FoFCou.
 Requested convergence on RMS density matrix=1.00D-08 within 128 cycles.
 Requested convergence on MAX density matrix=1.00D-06.
 Requested convergence on             energy=1.00D-06.
 No special actions if energy rises.
 Keep R1 ints in memory in canonical form, NReq=2397586.
 SCF Done:  E(RHF) =  -196.764548132     A.U. after   13 cycles
             Convg  =    0.9658D-08             -V/T =  2.0704
   1 Symmetry operations used in ECPInt.
 ECPInt:  NShTT=     630 NPrTT=    3262 LenC2=     625 LenP2D=    2694.
 LDataN:  DoStor=T MaxTD1= 5 Len=  102
 Calling FoFJK, ICntrl=      2127 FMM=F ISym2X=0 I1Cent= 0 IOpClX= 0 NMat=1 NMatS=1 NMatT=0.
 ***** Axes restored to original set *****
 -------------------------------------------------------------------
 Center     Atomic                   Forces (Hartrees/Bohr)
 Number     Number              X              Y              Z
 -------------------------------------------------------------------
      1        6           0.006877332   -0.016550097   -0.000036721
      2        6          -0.021012332    0.031051799   -0.002978693
      3        1           0.000626363   -0.000727914   -0.000863137
      4        1          -0.000493527    0.000599804    0.002234390
      5        1          -0.000712912   -0.000178324    0.004274536
      6       50          -0.004532708    0.000744069    0.007641252
      7       50           0.003767902   -0.003279381   -0.010314290
      8       35          -0.001336212    0.002005363   -0.000126078
      9        1          -0.000048921    0.002112594    0.000424776
     10        9           0.016865016   -0.015777914   -0.000256035
 -------------------------------------------------------------------
 Cartesian Forces:  Max     0.031051799 RMS     0.009158992

 GradGradGradGradGradGradGradGradGradGradGradGradGradGradGradGradGradGrad
 Berny optimization.
 Using GEDIIS/GDIIS optimizer.
 Internal  Forces:  Max     0.023093100 RMS     0.005791398
 Search for a local minimum.
 Step number   2 out of a maximum of   43
 All quantities printed in internal units (Hartrees-Bohrs-Radians)
 Mixed Optimization -- RFO/linear search
 Update second derivatives using D2CorX and points    1    2
 DE= -7.17D-03 DEPred=-8.04D-03 R= 8.92D-01
 SS=  1.41D+00  RLast= 2.99D-01 DXNew= 5.0454D-01 8.9677D-01
 Trust test= 8.92D-01 RLast= 2.99D-01 DXMaxT set to 5.05D-01
 Use linear search instead of GDIIS.
 Linear search step of   0.551 exceeds DXMaxT=   0.505 but not scaled.
 Quartic linear search produced a step of  1.84361.
 Iteration  1 RMS(Cart)=  0.17278694 RMS(Int)=  0.03839678
 Iteration  2 RMS(Cart)=  0.05381982 RMS(Int)=  0.01376421
 Iteration  3 RMS(Cart)=  0.00329444 RMS(Int)=  0.01341678
 Iteration  4 RMS(Cart)=  0.00010778 RMS(Int)=  0.01341663
 Iteration  5 RMS(Cart)=  0.00000561 RMS(Int)=  0.01341663
 Iteration  6 RMS(Cart)=  0.00000030 RMS(Int)=  0.01341663
 Variable       Old X    -DE/DX   Delta X   Delta X   Delta X     New X
                                 (Linear)    (Quad)   (Total)
    R1        2.52455  -0.01043  -0.01547   0.00000  -0.01547   2.50908
    R2        3.63174   0.00239   0.04122   0.00000   0.04122   3.67296
    R3        2.02351   0.00051   0.00276   0.00000   0.00276   2.02627
    R4        4.01235   0.00229   0.08028   0.00000   0.08028   4.09262
    R5        2.57936   0.02309   0.05205   0.00000   0.05205   2.63141
    R6        3.18427  -0.00068  -0.02962   0.00000  -0.02962   3.15465
    R7        3.18657   0.00040  -0.00252   0.00000  -0.00252   3.18404
    R8        3.18781   0.00021  -0.00198   0.00000  -0.00198   3.18583
    R9        4.84971   0.00235   0.00388   0.00000   0.00388   4.85359
    A1        2.18016  -0.00084   0.06244   0.00000   0.06233   2.24249
    A2        2.11284   0.00251  -0.01356   0.00000  -0.01367   2.09917
    A3        1.99011  -0.00167  -0.04901   0.00000  -0.04911   1.94099
    A4        2.23013   0.01265   0.11691   0.00000   0.11679   2.34692
    A5        2.03057  -0.00592  -0.07246   0.00000  -0.07259   1.95798
    A6        2.02240  -0.00674  -0.04461   0.00000  -0.04474   1.97767
    A7        1.95872   0.00320   0.04741   0.00000   0.04736   2.00608
    A8        2.15405  -0.00761  -0.04468   0.00000  -0.04467   2.10938
    A9        2.12382   0.00321  -0.00445   0.00000  -0.00436   2.11946
   A10        2.03054   0.00012  -0.01630   0.00000  -0.06449   1.96605
   A11        2.09711  -0.00257  -0.02860   0.00000  -0.06746   2.02965
   A12        2.13034   0.00062  -0.00155   0.00000  -0.03971   2.09064
    D1        0.00640  -0.00064   0.01180   0.00000   0.01193   0.01833
    D2       -3.12045  -0.00006   0.03898   0.00000   0.03885  -3.08160
    D3        3.13462  -0.00058  -0.01286   0.00000  -0.01273   3.12189
    D4        0.00777   0.00000   0.01432   0.00000   0.01419   0.02196
    D5        0.34092   0.00191   0.04424   0.00000   0.04456   0.38548
    D6       -3.12004  -0.00124   0.03974   0.00000   0.03968  -3.08035
    D7       -2.81536   0.00134   0.01717   0.00000   0.01723  -2.79812
    D8        0.00687  -0.00182   0.01267   0.00000   0.01236   0.01923
    D9        3.07347  -0.00115  -0.12558   0.00000  -0.11298   2.96049
   D10        0.17999   0.00772   0.33183   0.00000   0.31889   0.49888
   D11       -0.41668  -0.00486  -0.12276   0.00000  -0.10982  -0.52650
   D12        2.97302   0.00400   0.33465   0.00000   0.32205  -2.98811
         Item               Value     Threshold  Converged?
 Maximum Force            0.023093     0.000450     NO 
 RMS     Force            0.005791     0.000300     NO 
 Maximum Displacement     0.482850     0.001800     NO 
 RMS     Displacement     0.195478     0.001200     NO 
 Predicted change in Energy=-6.360489D-04
 GradGradGradGradGradGradGradGradGradGradGradGradGradGradGradGradGradGrad

                          Input orientation:                          
 ---------------------------------------------------------------------
 Center     Atomic      Atomic             Coordinates (Angstroms)
 Number     Number       Type             X           Y           Z
 ---------------------------------------------------------------------
      1          6           0        2.292025    2.984585    0.022388
      2          6           0        1.809730    1.753073   -0.094600
      3          1           0       -1.395837    1.963472   -0.548679
      4          1           0       -2.092563   -2.198085    0.002182
      5          1           0        0.643854   -2.676959    0.391126
      6         50           0       -0.180590    0.899843   -0.126001
      7         50           0       -0.522154   -1.642662   -0.251372
      8         35           0        1.315682    4.648712    0.257333
      9          1           0        3.351090    3.152199    0.026886
     10          9           0        2.820023    0.797980   -0.172799
 ---------------------------------------------------------------------
                    Distance matrix (angstroms):
                    1          2          3          4          5
     1  C    0.000000
     2  C    1.327749   0.000000
     3  H    3.868995   3.244398   0.000000
     4  H    6.788599   5.554178   4.255282   0.000000
     5  H    5.908089   4.606558   5.155305   2.805098   0.000000
     6  Sn   3.237590   2.165724   1.669368   3.642695   3.706837
     7  Sn   5.422726   4.122289   3.722353   1.684924   1.685867
     8  Br   1.943647   2.958491   3.900321   7.652441   7.357629
     9  H    1.072256   2.085211   4.927237   7.632791   6.437459
    10  F    2.257902   1.392483   4.390118   5.756780   4.138710
                    6          7          8          9         10
     6  Sn   0.000000
     7  Sn   2.568407   0.000000
     8  Br   4.054601   6.574025   0.000000
     9  H    4.191568   6.170100   2.536837   0.000000
    10  F    3.002706   4.139209   4.156464   2.421622   0.000000
 Stoichiometry    C2H4BrFSn2
 Framework group  C1[X(C2H4BrFSn2)]
 Deg. of freedom    24
 Full point group                 C1      NOp   1
 Largest Abelian subgroup         C1      NOp   1
 Largest concise Abelian subgroup C1      NOp   1
                         Standard orientation:                         
 ---------------------------------------------------------------------
 Center     Atomic      Atomic             Coordinates (Angstroms)
 Number     Number       Type             X           Y           Z
 ---------------------------------------------------------------------
      1          6           0       -2.502685    1.135397   -0.042624
      2          6           0       -1.175775    1.095657   -0.068093
      3          1           0       -0.267369   -1.980554   -0.555779
      4          1           0        3.837653   -1.265209    0.307061
      5          1           0        3.343287    1.460622    0.747537
      6         50           0        0.295128   -0.493780   -0.045987
      7         50           0        2.807224    0.036869    0.021098
      8         35           0       -3.755465   -0.347172    0.058840
      9          1           0       -3.015422    2.077114   -0.044697
     10          9           0       -0.611524    2.368697   -0.067199
 ---------------------------------------------------------------------
 Rotational constants (GHZ):      2.6839516      0.2310216      0.2130143
 Standard basis: LANL2DZ (5D, 7F)
 There are    59 symmetry adapted basis functions of A   symmetry.
 Integral buffers will be    131072 words long.
 Raffenetti 1 integral format.
 Two-electron integral symmetry is turned on.
    59 basis functions,   127 primitive gaussians,    59 cartesian basis functions
    20 alpha electrons       20 beta electrons
       nuclear repulsion energy       133.8538292483 Hartrees.
 NAtoms=   10 NActive=   10 NUniq=   10 SFac= 7.50D-01 NAtFMM=   80 NAOKFM=F Big=F
 One-electron integrals computed using PRISM.
   1 Symmetry operations used in ECPInt.
 ECPInt:  NShTT=     630 NPrTT=    3262 LenC2=     625 LenP2D=    2693.
 LDataN:  DoStor=T MaxTD1= 4 Len=   56
 NBasis=    59 RedAO= T  NBF=    59
 NBsUse=    59 1.00D-06 NBFU=    59
 Initial guess read from the read-write file.
 B after Tr=     0.000000    0.000000    0.000000
         Rot=    1.000000    0.000000    0.000000    0.000000 Ang=   0.00 deg.
 Initial guess orbital symmetries:
       Occupied  (A) (A) (A) (A) (A) (A) (A) (A) (A) (A) (A) (A)
                 (A) (A) (A) (A) (A) (A) (A) (A)
       Virtual   (A) (A) (A) (A) (A) (A) (A) (A) (A) (A) (A) (A)
                 (A) (A) (A) (A) (A) (A) (A) (A) (A) (A) (A) (A)
                 (A) (A) (A) (A) (A) (A) (A) (A) (A) (A) (A) (A)
                 (A) (A) (A)
 Harris functional with IExCor=  205 diagonalized for initial guess.
 ExpMin= 6.30D-02 ExpMax= 1.00D+04 ExpMxC= 3.50D+02 IAcc=2 IRadAn=         0 AccDes= 0.00D+00
 HarFok:  IExCor=  205 AccDes= 0.00D+00 IRadAn=         0 IDoV= 1
 ScaDFX=  1.000000  1.000000  1.000000  1.000000
 Defaulting to unpruned grid for atomic number  50.
 Defaulting to unpruned grid for atomic number  50.
 Defaulting to unpruned grid for atomic number  50.
 Defaulting to unpruned grid for atomic number  50.
 Defaulting to unpruned grid for atomic number  50.
 Defaulting to unpruned grid for atomic number  50.
 Defaulting to unpruned grid for atomic number  50.
 Defaulting to unpruned grid for atomic number  50.
 Defaulting to unpruned grid for atomic number  50.
 Defaulting to unpruned grid for atomic number  50.
 Defaulting to unpruned grid for atomic number  50.
 Defaulting to unpruned grid for atomic number  50.
 Defaulting to unpruned grid for atomic number  50.
 Defaulting to unpruned grid for atomic number  50.
 Defaulting to unpruned grid for atomic number  50.
 Defaulting to unpruned grid for atomic number  50.
 Defaulting to unpruned grid for atomic number  50.
 Defaulting to unpruned grid for atomic number  50.
 Defaulting to unpruned grid for atomic number  50.
 Defaulting to unpruned grid for atomic number  50.
 FoFCou: FMM=F IPFlag=           0 FMFlag=      100000 FMFlg1=           0
         NFxFlg=           0 DoJE=T BraDBF=F KetDBF=T FulRan=T
         Omega=  0.000000  0.000000  1.000000  0.000000  0.000000 ICntrl=     500 IOpCl=  0
         NMat0=    1 NMatS0=    1 NMatT0=    0 NMatD0=    1 NMtDS0=    0 NMtDT0=    0
         I1Cent=           4 NGrid=           0.
 Petite list used in FoFCou.
 Requested convergence on RMS density matrix=1.00D-08 within 128 cycles.
 Requested convergence on MAX density matrix=1.00D-06.
 Requested convergence on             energy=1.00D-06.
 No special actions if energy rises.
 Keep R1 ints in memory in canonical form, NReq=2397586.
 SCF Done:  E(RHF) =  -196.767636411     A.U. after   16 cycles
             Convg  =    0.6700D-08             -V/T =  2.0708
   1 Symmetry operations used in ECPInt.
 ECPInt:  NShTT=     630 NPrTT=    3262 LenC2=     625 LenP2D=    2693.
 LDataN:  DoStor=T MaxTD1= 5 Len=  102
 Calling FoFJK, ICntrl=      2127 FMM=F ISym2X=0 I1Cent= 0 IOpClX= 0 NMat=1 NMatS=1 NMatT=0.
 ***** Axes restored to original set *****
 -------------------------------------------------------------------
 Center     Atomic                   Forces (Hartrees/Bohr)
 Number     Number              X              Y              Z
 -------------------------------------------------------------------
      1        6           0.004001108    0.004590854    0.002009282
      2        6          -0.014565479    0.012946726   -0.004147767
      3        1          -0.000568669    0.006422558   -0.006744115
      4        1          -0.003196633    0.000136545    0.001924002
      5        1           0.001251396   -0.000682857    0.002035788
      6       50           0.010169397    0.007336916    0.018113137
      7       50           0.003468211   -0.009006168   -0.009302513
      8       35          -0.002638327   -0.009132217   -0.002660011
      9        1          -0.000800755   -0.000240154    0.000921272
     10        9           0.002879751   -0.012372203   -0.002149075
 -------------------------------------------------------------------
 Cartesian Forces:  Max     0.018113137 RMS     0.007012469

 GradGradGradGradGradGradGradGradGradGradGradGradGradGradGradGradGradGrad
 Berny optimization.
 Using GEDIIS/GDIIS optimizer.
 Internal  Forces:  Max     0.016938392 RMS     0.006555394
 Search for a local minimum.
 Step number   3 out of a maximum of   43
 All quantities printed in internal units (Hartrees-Bohrs-Radians)
 Mixed Optimization -- RFO/linear search
 Update second derivatives using D2CorX and points    2    3
 Use linear search instead of GDIIS.
     Eigenvalues ---    0.00230   0.00253   0.00482   0.01553   0.01851
     Eigenvalues ---    0.02879   0.02922   0.10761   0.13120   0.13191
     Eigenvalues ---    0.13275   0.14614   0.15333   0.15836   0.16000
     Eigenvalues ---    0.16163   0.18142   0.18317   0.22779   0.23176
     Eigenvalues ---    0.28223   0.37241   0.50529   0.570901000.00000
     Eigenvalues --- 1000.000001000.000001000.000001000.000001000.00000
     Eigenvalues --- 1000.000001000.000001000.00000
 RFO step:  Lambda=-9.47054792D-03 EMin= 2.29952623D-03
 Quartic linear search produced a step of -0.22582.
 Maximum step size (   0.505) exceeded in Quadratic search.
    -- Step size scaled by   0.759
 Iteration  1 RMS(Cart)=  0.10061775 RMS(Int)=  0.00888711
 Iteration  2 RMS(Cart)=  0.01290716 RMS(Int)=  0.00530006
 Iteration  3 RMS(Cart)=  0.00009394 RMS(Int)=  0.00529985
 Iteration  4 RMS(Cart)=  0.00000098 RMS(Int)=  0.00529985
 Variable       Old X    -DE/DX   Delta X   Delta X   Delta X     New X
                                 (Linear)    (Quad)   (Total)
    R1        2.50908  -0.00421   0.00349  -0.01337  -0.00987   2.49921
    R2        3.67296  -0.00682  -0.00931   0.00137  -0.00794   3.66502
    R3        2.02627  -0.00082  -0.00062   0.00035  -0.00027   2.02600
    R4        4.09262  -0.01197  -0.01813  -0.00408  -0.02220   4.07042
    R5        2.63141   0.01070  -0.01175   0.03825   0.02649   2.65791
    R6        3.15465   0.00621   0.00669   0.00861   0.01530   3.16994
    R7        3.18404   0.00322   0.00057   0.01026   0.01083   3.19487
    R8        3.18583   0.00206   0.00045   0.00635   0.00680   3.19263
    R9        4.85359   0.00951  -0.00088   0.04155   0.04068   4.89426
    A1        2.24249  -0.01694  -0.01407  -0.01152  -0.02561   2.21688
    A2        2.09917   0.00846   0.00309   0.01524   0.01831   2.11748
    A3        1.94099   0.00851   0.01109  -0.00342   0.00765   1.94865
    A4        2.34692  -0.00708  -0.02637   0.04258   0.01622   2.36314
    A5        1.95798   0.01290   0.01639  -0.00951   0.00689   1.96487
    A6        1.97767  -0.00582   0.01010  -0.03330  -0.02319   1.95448
    A7        2.00608  -0.00601  -0.01070  -0.02988  -0.05654   1.94953
    A8        2.10938  -0.00283   0.01009  -0.05064  -0.05520   2.05418
    A9        2.11946   0.00639   0.00098  -0.01381  -0.03031   2.08916
   A10        1.96605   0.00135   0.01456  -0.02986  -0.00924   1.95681
   A11        2.02965  -0.00328   0.01523  -0.04521  -0.02533   2.00432
   A12        2.09064  -0.00118   0.00897  -0.02467  -0.01119   2.07944
    D1        0.01833  -0.00236  -0.00269  -0.02791  -0.03062  -0.01229
    D2       -3.08160  -0.00239  -0.00877  -0.01887  -0.02762  -3.10923
    D3        3.12189  -0.00092   0.00287  -0.01703  -0.01418   3.10771
    D4        0.02196  -0.00095  -0.00320  -0.00800  -0.01118   0.01077
    D5        0.38548   0.00272  -0.01006   0.14410   0.13039   0.51587
    D6       -3.08035  -0.00406  -0.00896  -0.16473  -0.17008   3.03276
    D7       -2.79812   0.00308  -0.00389   0.13544   0.12793  -2.67019
    D8        0.01923  -0.00371  -0.00279  -0.17340  -0.17254  -0.15330
    D9        2.96049   0.00264   0.02551   0.12317   0.14551   3.10601
   D10        0.49888   0.00685  -0.07201   0.28511   0.21345   0.71233
   D11       -0.52650  -0.00703   0.02480  -0.20942  -0.18497  -0.71147
   D12       -2.98811  -0.00282  -0.07273  -0.04748  -0.11704  -3.10515
         Item               Value     Threshold  Converged?
 Maximum Force            0.016938     0.000450     NO 
 RMS     Force            0.006555     0.000300     NO 
 Maximum Displacement     0.413271     0.001800     NO 
 RMS     Displacement     0.105934     0.001200     NO 
 Predicted change in Energy=-5.667381D-03
 GradGradGradGradGradGradGradGradGradGradGradGradGradGradGradGradGradGrad

                          Input orientation:                          
 ---------------------------------------------------------------------
 Center     Atomic      Atomic             Coordinates (Angstroms)
 Number     Number       Type             X           Y           Z
 ---------------------------------------------------------------------
      1          6           0        2.289165    2.973677   -0.003090
      2          6           0        1.773270    1.756231   -0.030486
      3          1           0       -1.362933    1.984597   -0.517850
      4          1           0       -2.057614   -2.200655   -0.119324
      5          1           0        0.660651   -2.674298    0.380742
      6         50           0       -0.211499    0.928510    0.092692
      7         50           0       -0.478652   -1.619675   -0.285630
      8         35           0        1.323535    4.647637    0.160795
      9          1           0        3.348358    3.131447   -0.054459
     10          9           0        2.756980    0.754686   -0.116926
 ---------------------------------------------------------------------
                    Distance matrix (angstroms):
                    1          2          3          4          5
     1  C    0.000000
     2  C    1.322524   0.000000
     3  H    3.818517   3.182050   0.000000
     4  H    6.758824   5.508222   4.261189   0.000000
     5  H    5.890585   4.586569   5.158261   2.804170   0.000000
     6  Sn   3.231903   2.153974   1.677462   3.639336   3.718043
     7  Sn   5.370244   4.066079   3.718421   1.690655   1.689465
     8  Br   1.939444   2.932418   3.843104   7.642626   7.355169
     9  H    1.072111   2.091099   4.870961   7.593421   6.412475
    10  F    2.270623   1.406503   4.318229   5.649279   4.049716
                    6          7          8          9         10
     6  Sn   0.000000
     7  Sn   2.589932   0.000000
     8  Br   4.024036   6.536541   0.000000
     9  H    4.188934   6.105130   2.538715   0.000000
    10  F    2.980943   4.016886   4.157759   2.450025   0.000000
 Stoichiometry    C2H4BrFSn2
 Framework group  C1[X(C2H4BrFSn2)]
 Deg. of freedom    24
 Full point group                 C1      NOp   1
 Largest Abelian subgroup         C1      NOp   1
 Largest concise Abelian subgroup C1      NOp   1
                         Standard orientation:                         
 ---------------------------------------------------------------------
 Center     Atomic      Atomic             Coordinates (Angstroms)
 Number     Number       Type             X           Y           Z
 ---------------------------------------------------------------------
      1          6           0       -2.467861    1.159379   -0.039303
      2          6           0       -1.149120    1.070519    0.006486
      3          1           0       -0.302967   -1.929954   -0.631188
      4          1           0        3.845971   -1.250334    0.063195
      5          1           0        3.367760    1.434830    0.714787
      6         50           0        0.276790   -0.540663    0.108833
      7         50           0        2.788729    0.061149   -0.080207
      8         35           0       -3.737370   -0.306809   -0.048326
      9          1           0       -2.962080    2.110611   -0.057413
     10          9           0       -0.523871    2.329937    0.040848
 ---------------------------------------------------------------------
 Rotational constants (GHZ):      2.6573034      0.2339416      0.2156100
 Standard basis: LANL2DZ (5D, 7F)
 There are    59 symmetry adapted basis functions of A   symmetry.
 Integral buffers will be    131072 words long.
 Raffenetti 1 integral format.
 Two-electron integral symmetry is turned on.
    59 basis functions,   127 primitive gaussians,    59 cartesian basis functions
    20 alpha electrons       20 beta electrons
       nuclear repulsion energy       134.1080532543 Hartrees.
 NAtoms=   10 NActive=   10 NUniq=   10 SFac= 7.50D-01 NAtFMM=   80 NAOKFM=F Big=F
 One-electron integrals computed using PRISM.
   1 Symmetry operations used in ECPInt.
 ECPInt:  NShTT=     630 NPrTT=    3262 LenC2=     625 LenP2D=    2698.
 LDataN:  DoStor=T MaxTD1= 4 Len=   56
 NBasis=    59 RedAO= T  NBF=    59
 NBsUse=    59 1.00D-06 NBFU=    59
 Initial guess read from the read-write file.
 B after Tr=     0.000000    0.000000    0.000000
         Rot=    1.000000    0.000000    0.000000    0.000000 Ang=   0.00 deg.
 Initial guess orbital symmetries:
       Occupied  (A) (A) (A) (A) (A) (A) (A) (A) (A) (A) (A) (A)
                 (A) (A) (A) (A) (A) (A) (A) (A)
       Virtual   (A) (A) (A) (A) (A) (A) (A) (A) (A) (A) (A) (A)
                 (A) (A) (A) (A) (A) (A) (A) (A) (A) (A) (A) (A)
                 (A) (A) (A) (A) (A) (A) (A) (A) (A) (A) (A) (A)
                 (A) (A) (A)
 Harris functional with IExCor=  205 diagonalized for initial guess.
 ExpMin= 6.30D-02 ExpMax= 1.00D+04 ExpMxC= 3.50D+02 IAcc=2 IRadAn=         0 AccDes= 0.00D+00
 HarFok:  IExCor=  205 AccDes= 0.00D+00 IRadAn=         0 IDoV= 1
 ScaDFX=  1.000000  1.000000  1.000000  1.000000
 Defaulting to unpruned grid for atomic number  50.
 Defaulting to unpruned grid for atomic number  50.
 Defaulting to unpruned grid for atomic number  50.
 Defaulting to unpruned grid for atomic number  50.
 Defaulting to unpruned grid for atomic number  50.
 Defaulting to unpruned grid for atomic number  50.
 Defaulting to unpruned grid for atomic number  50.
 Defaulting to unpruned grid for atomic number  50.
 Defaulting to unpruned grid for atomic number  50.
 Defaulting to unpruned grid for atomic number  50.
 Defaulting to unpruned grid for atomic number  50.
 Defaulting to unpruned grid for atomic number  50.
 Defaulting to unpruned grid for atomic number  50.
 Defaulting to unpruned grid for atomic number  50.
 Defaulting to unpruned grid for atomic number  50.
 Defaulting to unpruned grid for atomic number  50.
 Defaulting to unpruned grid for atomic number  50.
 Defaulting to unpruned grid for atomic number  50.
 Defaulting to unpruned grid for atomic number  50.
 Defaulting to unpruned grid for atomic number  50.
 FoFCou: FMM=F IPFlag=           0 FMFlag=      100000 FMFlg1=           0
         NFxFlg=           0 DoJE=T BraDBF=F KetDBF=T FulRan=T
         Omega=  0.000000  0.000000  1.000000  0.000000  0.000000 ICntrl=     500 IOpCl=  0
         NMat0=    1 NMatS0=    1 NMatT0=    0 NMatD0=    1 NMtDS0=    0 NMtDT0=    0
         I1Cent=           4 NGrid=           0.
 Petite list used in FoFCou.
 Requested convergence on RMS density matrix=1.00D-08 within 128 cycles.
 Requested convergence on MAX density matrix=1.00D-06.
 Requested convergence on             energy=1.00D-06.
 No special actions if energy rises.
 Keep R1 ints in memory in canonical form, NReq=2397586.
 SCF Done:  E(RHF) =  -196.774919805     A.U. after   13 cycles
             Convg  =    0.7005D-08             -V/T =  2.0707
   1 Symmetry operations used in ECPInt.
 ECPInt:  NShTT=     630 NPrTT=    3262 LenC2=     625 LenP2D=    2698.
 LDataN:  DoStor=T MaxTD1= 5 Len=  102
 Calling FoFJK, ICntrl=      2127 FMM=F ISym2X=0 I1Cent= 0 IOpClX= 0 NMat=1 NMatS=1 NMatT=0.
 ***** Axes restored to original set *****
 -------------------------------------------------------------------
 Center     Atomic                   Forces (Hartrees/Bohr)
 Number     Number              X              Y              Z
 -------------------------------------------------------------------
      1        6           0.006220349    0.007909765    0.001061558
      2        6          -0.006935559    0.002155135   -0.004114338
      3        1          -0.000491928    0.005308765   -0.005656308
      4        1          -0.002619777   -0.001445653    0.003611048
      5        1           0.000093597   -0.001695650    0.003142109
      6       50           0.005142813    0.008750507    0.015272298
      7       50           0.003331909   -0.008675353   -0.012615780
      8       35          -0.002782314   -0.006362128   -0.000992307
      9        1          -0.000900153   -0.000595714    0.000434826
     10        9          -0.001058937   -0.005349674   -0.000143106
 -------------------------------------------------------------------
 Cartesian Forces:  Max     0.015272298 RMS     0.005565755

 GradGradGradGradGradGradGradGradGradGradGradGradGradGradGradGradGradGrad
 Berny optimization.
 Using GEDIIS/GDIIS optimizer.
 Internal  Forces:  Max     0.013289921 RMS     0.005074935
 Search for a local minimum.
 Step number   4 out of a maximum of   43
 All quantities printed in internal units (Hartrees-Bohrs-Radians)
 Mixed Optimization -- RFO/linear search
 Update second derivatives using D2CorX and points    3    4
 DE= -7.28D-03 DEPred=-5.67D-03 R= 1.29D+00
 SS=  1.41D+00  RLast= 4.71D-01 DXNew= 8.4853D-01 1.4137D+00
 Trust test= 1.29D+00 RLast= 4.71D-01 DXMaxT set to 8.49D-01
 Use linear search instead of GDIIS.
     Eigenvalues ---    0.00220   0.00236   0.00500   0.01575   0.02602
     Eigenvalues ---    0.02877   0.03274   0.09642   0.12430   0.13175
     Eigenvalues ---    0.13268   0.13374   0.14042   0.15795   0.16000
     Eigenvalues ---    0.16496   0.16997   0.18505   0.20501   0.23125
     Eigenvalues ---    0.25718   0.37231   0.52799   0.591781000.00000
     Eigenvalues --- 1000.000001000.000001000.000001000.000001000.00000
     Eigenvalues --- 1000.000001000.000001000.00000
 RFO step:  Lambda=-8.94367750D-03 EMin= 2.20178685D-03
 Quartic linear search produced a step of  1.39186.
 Iteration  1 RMS(Cart)=  0.12536195 RMS(Int)=  0.08364230
 Iteration  2 RMS(Cart)=  0.08308240 RMS(Int)=  0.03236280
 Iteration  3 RMS(Cart)=  0.02296683 RMS(Int)=  0.02783507
 Iteration  4 RMS(Cart)=  0.00236042 RMS(Int)=  0.02782499
 Iteration  5 RMS(Cart)=  0.00009554 RMS(Int)=  0.02782496
 Iteration  6 RMS(Cart)=  0.00001013 RMS(Int)=  0.02782496
 Iteration  7 RMS(Cart)=  0.00000057 RMS(Int)=  0.02782496
 Variable       Old X    -DE/DX   Delta X   Delta X   Delta X     New X
                                 (Linear)    (Quad)   (Total)
    R1        2.49921   0.00188  -0.01374   0.00585  -0.00789   2.49131
    R2        3.66502  -0.00419  -0.01106  -0.02142  -0.03248   3.63254
    R3        2.02600  -0.00100  -0.00038  -0.00387  -0.00426   2.02174
    R4        4.07042  -0.00568  -0.03090  -0.02531  -0.05622   4.01420
    R5        2.65791   0.00308   0.03688   0.01414   0.05102   2.70892
    R6        3.16994   0.00574   0.02129   0.05721   0.07850   3.24844
    R7        3.19487   0.00330   0.01507   0.03576   0.05083   3.24570
    R8        3.19263   0.00236   0.00946   0.02652   0.03598   3.22861
    R9        4.89426   0.01240   0.05662   0.16743   0.22404   5.11831
    A1        2.21688  -0.01329  -0.03564  -0.07604  -0.11186   2.10502
    A2        2.11748   0.00621   0.02548   0.03594   0.06124   2.17872
    A3        1.94865   0.00709   0.01065   0.04026   0.05074   1.99939
    A4        2.36314  -0.00583   0.02258  -0.01421   0.00823   2.37137
    A5        1.96487   0.00892   0.00959   0.03491   0.04433   2.00920
    A6        1.95448  -0.00310  -0.03227  -0.02173  -0.05413   1.90035
    A7        1.94953  -0.00460  -0.07870  -0.04427  -0.19960   1.74993
    A8        2.05418  -0.00309  -0.07683  -0.04456  -0.16839   1.88579
    A9        2.08916   0.00381  -0.04218   0.02133  -0.11154   1.97761
   A10        1.95681  -0.00182  -0.01286  -0.10024  -0.15490   1.80191
   A11        2.00432  -0.00217  -0.03526  -0.07597  -0.13223   1.87208
   A12        2.07944  -0.00117  -0.01558  -0.06407  -0.09783   1.98161
    D1       -0.01229  -0.00139  -0.04262  -0.02914  -0.07211  -0.08440
    D2       -3.10923  -0.00099  -0.03845   0.00390  -0.03420   3.13976
    D3        3.10771  -0.00062  -0.01973  -0.01840  -0.03849   3.06922
    D4        0.01077  -0.00021  -0.01557   0.01464  -0.00057   0.01020
    D5        0.51587   0.00166   0.18149   0.04782   0.19724   0.71311
    D6        3.03276  -0.00247  -0.23672  -0.04059  -0.24599   2.78677
    D7       -2.67019   0.00148   0.17806   0.01596   0.16270  -2.50749
    D8       -0.15330  -0.00266  -0.24015  -0.07245  -0.28053  -0.43383
    D9        3.10601  -0.00039   0.20254  -0.21696  -0.01665   3.08936
   D10        0.71233   0.00711   0.29709   0.13762   0.39799   1.11032
   D11       -0.71147  -0.00819  -0.25746  -0.33917  -0.55991  -1.27138
   D12       -3.10515  -0.00070  -0.16290   0.01541  -0.14527   3.03276
         Item               Value     Threshold  Converged?
 Maximum Force            0.013290     0.000450     NO 
 RMS     Force            0.005075     0.000300     NO 
 Maximum Displacement     0.612612     0.001800     NO 
 RMS     Displacement     0.200260     0.001200     NO 
 Predicted change in Energy=-1.371277D-02
 GradGradGradGradGradGradGradGradGradGradGradGradGradGradGradGradGradGrad

                          Input orientation:                          
 ---------------------------------------------------------------------
 Center     Atomic      Atomic             Coordinates (Angstroms)
 Number     Number       Type             X           Y           Z
 ---------------------------------------------------------------------
      1          6           0        2.268996    2.923737   -0.035237
      2          6           0        1.706935    1.734982    0.059564
      3          1           0       -1.171641    2.102220   -0.529928
      4          1           0       -1.936370   -2.151762   -0.116325
      5          1           0        0.668646   -2.619056    0.340675
      6         50           0       -0.253638    0.999584    0.416872
      7         50           0       -0.372138   -1.549458   -0.491021
      8         35           0        1.200209    4.520007    0.033285
      9          1           0        3.317151    3.095613   -0.163405
     10          9           0        2.613113    0.626290   -0.008017
 ---------------------------------------------------------------------
                    Distance matrix (angstroms):
                    1          2          3          4          5
     1  C    0.000000
     2  C    1.318347   0.000000
     3  H    3.571777   2.961176   0.000000
     4  H    6.591841   5.330233   4.341917   0.000000
     5  H    5.781435   4.484944   5.141503   2.685762   0.000000
     6  Sn   3.204755   2.124224   1.719002   3.612044   3.735099
     7  Sn   5.214672   3.925970   3.738379   1.717553   1.708505
     8  Br   1.922258   2.830870   3.433450   7.373806   7.165422
     9  H    1.069859   2.119865   4.611987   7.425405   6.318712
    10  F    2.323235   1.433500   4.095744   5.331707   3.799317
                    6          7          8          9         10
     6  Sn   0.000000
     7  Sn   2.708492   0.000000
     8  Br   3.828080   6.291708   0.000000
     9  H    4.180980   5.940949   2.559107   0.000000
    10  F    2.922009   3.725439   4.142346   2.572424   0.000000
 Stoichiometry    C2H4BrFSn2
 Framework group  C1[X(C2H4BrFSn2)]
 Deg. of freedom    24
 Full point group                 C1      NOp   1
 Largest Abelian subgroup         C1      NOp   1
 Largest concise Abelian subgroup C1      NOp   1
                         Standard orientation:                         
 ---------------------------------------------------------------------
 Center     Atomic      Atomic             Coordinates (Angstroms)
 Number     Number       Type             X           Y           Z
 ---------------------------------------------------------------------
      1          6           0       -2.369857    1.258408    0.014117
      2          6           0       -1.077638    1.050695    0.172435
      3          1           0       -0.521660   -1.677469   -0.835819
      4          1           0        3.723767   -1.255199   -0.029420
      5          1           0        3.354613    1.264574    0.823686
      6         50           0        0.182908   -0.649987    0.348594
      7         50           0        2.709807    0.111809   -0.259988
      8         35           0       -3.573286   -0.217153   -0.249617
      9          1           0       -2.837874    2.220447    0.007883
     10          9           0       -0.289400    2.233583    0.357851
 ---------------------------------------------------------------------
 Rotational constants (GHZ):      2.2561026      0.2496167      0.2311586
 Standard basis: LANL2DZ (5D, 7F)
 There are    59 symmetry adapted basis functions of A   symmetry.
 Integral buffers will be    131072 words long.
 Raffenetti 1 integral format.
 Two-electron integral symmetry is turned on.
    59 basis functions,   127 primitive gaussians,    59 cartesian basis functions
    20 alpha electrons       20 beta electrons
       nuclear repulsion energy       135.1861484497 Hartrees.
 NAtoms=   10 NActive=   10 NUniq=   10 SFac= 7.50D-01 NAtFMM=   80 NAOKFM=F Big=F
 One-electron integrals computed using PRISM.
   1 Symmetry operations used in ECPInt.
 ECPInt:  NShTT=     630 NPrTT=    3262 LenC2=     625 LenP2D=    2710.
 LDataN:  DoStor=T MaxTD1= 4 Len=   56
 NBasis=    59 RedAO= T  NBF=    59
 NBsUse=    59 1.00D-06 NBFU=    59
 Initial guess read from the read-write file.
 B after Tr=     0.000000    0.000000    0.000000
         Rot=    1.000000    0.000000    0.000000    0.000000 Ang=   0.00 deg.
 Initial guess orbital symmetries:
       Occupied  (A) (A) (A) (A) (A) (A) (A) (A) (A) (A) (A) (A)
                 (A) (A) (A) (A) (A) (A) (A) (A)
       Virtual   (A) (A) (A) (A) (A) (A) (A) (A) (A) (A) (A) (A)
                 (A) (A) (A) (A) (A) (A) (A) (A) (A) (A) (A) (A)
                 (A) (A) (A) (A) (A) (A) (A) (A) (A) (A) (A) (A)
                 (A) (A) (A)
 Harris functional with IExCor=  205 diagonalized for initial guess.
 ExpMin= 6.30D-02 ExpMax= 1.00D+04 ExpMxC= 3.50D+02 IAcc=2 IRadAn=         0 AccDes= 0.00D+00
 HarFok:  IExCor=  205 AccDes= 0.00D+00 IRadAn=         0 IDoV= 1
 ScaDFX=  1.000000  1.000000  1.000000  1.000000
 Defaulting to unpruned grid for atomic number  50.
 Defaulting to unpruned grid for atomic number  50.
 Defaulting to unpruned grid for atomic number  50.
 Defaulting to unpruned grid for atomic number  50.
 Defaulting to unpruned grid for atomic number  50.
 Defaulting to unpruned grid for atomic number  50.
 Defaulting to unpruned grid for atomic number  50.
 Defaulting to unpruned grid for atomic number  50.
 Defaulting to unpruned grid for atomic number  50.
 Defaulting to unpruned grid for atomic number  50.
 Defaulting to unpruned grid for atomic number  50.
 Defaulting to unpruned grid for atomic number  50.
 Defaulting to unpruned grid for atomic number  50.
 Defaulting to unpruned grid for atomic number  50.
 Defaulting to unpruned grid for atomic number  50.
 Defaulting to unpruned grid for atomic number  50.
 Defaulting to unpruned grid for atomic number  50.
 Defaulting to unpruned grid for atomic number  50.
 Defaulting to unpruned grid for atomic number  50.
 Defaulting to unpruned grid for atomic number  50.
 FoFCou: FMM=F IPFlag=           0 FMFlag=      100000 FMFlg1=           0
         NFxFlg=           0 DoJE=T BraDBF=F KetDBF=T FulRan=T
         Omega=  0.000000  0.000000  1.000000  0.000000  0.000000 ICntrl=     500 IOpCl=  0
         NMat0=    1 NMatS0=    1 NMatT0=    0 NMatD0=    1 NMtDS0=    0 NMtDT0=    0
         I1Cent=           4 NGrid=           0.
 Petite list used in FoFCou.
 Requested convergence on RMS density matrix=1.00D-08 within 128 cycles.
 Requested convergence on MAX density matrix=1.00D-06.
 Requested convergence on             energy=1.00D-06.
 No special actions if energy rises.
 Keep R1 ints in memory in canonical form, NReq=2397586.
 SCF Done:  E(RHF) =  -196.782112042     A.U. after   15 cycles
             Convg  =    0.3503D-08             -V/T =  2.0704
   1 Symmetry operations used in ECPInt.
 ECPInt:  NShTT=     630 NPrTT=    3262 LenC2=     625 LenP2D=    2710.
 LDataN:  DoStor=T MaxTD1= 5 Len=  102
 Calling FoFJK, ICntrl=      2127 FMM=F ISym2X=0 I1Cent= 0 IOpClX= 0 NMat=1 NMatS=1 NMatT=0.
 ***** Axes restored to original set *****
 -------------------------------------------------------------------
 Center     Atomic                   Forces (Hartrees/Bohr)
 Number     Number              X              Y              Z
 -------------------------------------------------------------------
      1        6           0.004852094    0.000886837   -0.001955694
      2        6           0.013266913   -0.013865960    0.000914513
      3        1          -0.001329978   -0.000246440    0.002311273
      4        1          -0.001009703   -0.003213847   -0.001534670
      5        1           0.001086109   -0.003113814   -0.000534248
      6       50          -0.009833322    0.007229549   -0.002011546
      7       50          -0.002236201   -0.005761538    0.001544155
      8       35          -0.001241657    0.007655325    0.000899541
      9        1          -0.000095732   -0.000325914   -0.000271377
     10        9          -0.003458524    0.010755801    0.000638053
 -------------------------------------------------------------------
 Cartesian Forces:  Max     0.013865960 RMS     0.005202849

 GradGradGradGradGradGradGradGradGradGradGradGradGradGradGradGradGradGrad
 Berny optimization.
 Using GEDIIS/GDIIS optimizer.
 Internal  Forces:  Max     0.014026537 RMS     0.005397185
 Search for a local minimum.
 Step number   5 out of a maximum of   43
 All quantities printed in internal units (Hartrees-Bohrs-Radians)
 Mixed Optimization -- RFO/linear search
 Update second derivatives using D2CorX and points    4    5
 DE= -7.19D-03 DEPred=-1.37D-02 R= 5.24D-01
 SS=  1.41D+00  RLast= 9.63D-01 DXNew= 1.4270D+00 2.8905D+00
 Trust test= 5.24D-01 RLast= 9.63D-01 DXMaxT set to 1.43D+00
 Use linear search instead of GDIIS.
     Eigenvalues ---    0.00231   0.00283   0.01641   0.02506   0.02883
     Eigenvalues ---    0.02971   0.04886   0.09575   0.11245   0.12787
     Eigenvalues ---    0.13156   0.13264   0.13383   0.15695   0.16004
     Eigenvalues ---    0.16146   0.18201   0.18742   0.21708   0.23611
     Eigenvalues ---    0.27168   0.37228   0.53708   0.596891000.00000
     Eigenvalues --- 1000.000001000.000001000.000001000.000001000.00000
     Eigenvalues --- 1000.000001000.000001000.00000
 RFO step:  Lambda=-2.42006507D-03 EMin= 2.31133539D-03
 Quartic linear search produced a step of -0.22540.
 Iteration  1 RMS(Cart)=  0.06986946 RMS(Int)=  0.00412969
 Iteration  2 RMS(Cart)=  0.00183250 RMS(Int)=  0.00394159
 Iteration  3 RMS(Cart)=  0.00000801 RMS(Int)=  0.00394159
 Iteration  4 RMS(Cart)=  0.00000012 RMS(Int)=  0.00394159
 Variable       Old X    -DE/DX   Delta X   Delta X   Delta X     New X
                                 (Linear)    (Quad)   (Total)
    R1        2.49131   0.00900   0.00178   0.00716   0.00894   2.50025
    R2        3.63254   0.00708   0.00732   0.01608   0.02340   3.65594
    R3        2.02174  -0.00011   0.00096  -0.00099  -0.00003   2.02171
    R4        4.01420   0.01403   0.01267   0.04301   0.05568   4.06988
    R5        2.70892  -0.01054  -0.01150  -0.00199  -0.01349   2.69543
    R6        3.24844  -0.00072  -0.01769   0.01515  -0.00254   3.24590
    R7        3.24570   0.00171  -0.01146   0.02028   0.00883   3.25453
    R8        3.22861   0.00235  -0.00811   0.02011   0.01200   3.24061
    R9        5.11831   0.01165  -0.05050   0.11499   0.06449   5.18280
    A1        2.10502   0.00782   0.02521  -0.00454   0.02066   2.12568
    A2        2.17872  -0.00421  -0.01380   0.00219  -0.01163   2.16709
    A3        1.99939  -0.00359  -0.01144   0.00246  -0.00900   1.99039
    A4        2.37137   0.00391  -0.00185   0.00642   0.00459   2.37596
    A5        2.00920  -0.00751  -0.00999  -0.00491  -0.01486   1.99434
    A6        1.90035   0.00360   0.01220  -0.00190   0.01033   1.91068
    A7        1.74993   0.00159   0.04499  -0.02948   0.02660   1.77653
    A8        1.88579   0.00400   0.03795  -0.00930   0.03623   1.92202
    A9        1.97761   0.00084   0.02514  -0.00365   0.03487   2.01248
   A10        1.80191  -0.00332   0.03491  -0.01785   0.02189   1.82381
   A11        1.87208   0.00878   0.02981   0.02496   0.05758   1.92966
   A12        1.98161   0.00603   0.02205   0.01937   0.04398   2.02559
    D1       -0.08440   0.00158   0.01625   0.00027   0.01660  -0.06780
    D2        3.13976   0.00152   0.00771   0.00768   0.01531  -3.12811
    D3        3.06922   0.00025   0.00868  -0.01161  -0.00286   3.06636
    D4        0.01020   0.00019   0.00013  -0.00420  -0.00414   0.00606
    D5        0.71311  -0.00122  -0.04446  -0.00395  -0.04386   0.66924
    D6        2.78677   0.00201   0.05545  -0.02553   0.02553   2.81229
    D7       -2.50749  -0.00154  -0.03667  -0.01117  -0.04345  -2.55094
    D8       -0.43383   0.00169   0.06323  -0.03275   0.02594  -0.40789
    D9        3.08936   0.00003   0.00375  -0.00253   0.00174   3.09110
   D10        1.11032  -0.00447  -0.08971  -0.00633  -0.09183   1.01849
   D11       -1.27138   0.00468   0.12620  -0.04515   0.07685  -1.19453
   D12        3.03276   0.00018   0.03274  -0.04894  -0.01672   3.01604
         Item               Value     Threshold  Converged?
 Maximum Force            0.014027     0.000450     NO 
 RMS     Force            0.005397     0.000300     NO 
 Maximum Displacement     0.178687     0.001800     NO 
 RMS     Displacement     0.070530     0.001200     NO 
 Predicted change in Energy=-2.370092D-03
 GradGradGradGradGradGradGradGradGradGradGradGradGradGradGradGradGradGrad

                          Input orientation:                          
 ---------------------------------------------------------------------
 Center     Atomic      Atomic             Coordinates (Angstroms)
 Number     Number       Type             X           Y           Z
 ---------------------------------------------------------------------
      1          6           0        2.292102    2.958459   -0.037491
      2          6           0        1.728820    1.764665    0.052502
      3          1           0       -1.211240    2.120252   -0.521751
      4          1           0       -1.986248   -2.246319   -0.116664
      5          1           0        0.659033   -2.700116    0.309842
      6         50           0       -0.260922    1.007153    0.377281
      7         50           0       -0.422367   -1.604206   -0.445331
      8         35           0        1.247458    4.585648    0.024155
      9          1           0        3.344489    3.119864   -0.142325
     10          9           0        2.650137    0.676757    0.006246
 ---------------------------------------------------------------------
                    Distance matrix (angstroms):
                    1          2          3          4          5
     1  C    0.000000
     2  C    1.323075   0.000000
     3  H    3.634625   3.016647   0.000000
     4  H    6.737971   5.469766   4.453277   0.000000
     5  H    5.899747   4.598363   5.236927   2.717599   0.000000
     6  Sn   3.239994   2.153689   1.717658   3.715618   3.820302
     7  Sn   5.324714   4.027994   3.807853   1.722224   1.714856
     8  Br   1.934639   2.861897   3.524398   7.559924   7.315068
     9  H    1.069841   2.117760   4.679514   7.563950   6.425597
    10  F    2.310035   1.426362   4.156042   5.482294   3.931913
                    6          7          8          9         10
     6  Sn   0.000000
     7  Sn   2.742618   0.000000
     8  Br   3.899427   6.428298   0.000000
     9  H    4.211001   6.049616   2.563938   0.000000
    10  F    2.953150   3.853180   4.152982   2.544203   0.000000
 Stoichiometry    C2H4BrFSn2
 Framework group  C1[X(C2H4BrFSn2)]
 Deg. of freedom    24
 Full point group                 C1      NOp   1
 Largest Abelian subgroup         C1      NOp   1
 Largest concise Abelian subgroup C1      NOp   1
                         Standard orientation:                         
 ---------------------------------------------------------------------
 Center     Atomic      Atomic             Coordinates (Angstroms)
 Number     Number       Type             X           Y           Z
 ---------------------------------------------------------------------
      1          6           0       -2.422227    1.247028   -0.003412
      2          6           0       -1.120996    1.059995    0.146073
      3          1           0       -0.510188   -1.743483   -0.785367
      4          1           0        3.846102   -1.224410   -0.020535
      5          1           0        3.429301    1.350439    0.742207
      6         50           0        0.193450   -0.636765    0.323875
      7         50           0        2.773366    0.105308   -0.237655
      8         35           0       -3.645924   -0.234712   -0.226659
      9          1           0       -2.894795    2.206835   -0.006591
     10          9           0       -0.371616    2.261807    0.315151
 ---------------------------------------------------------------------
[...]
 Translational            0.889              2.981             43.551
 Rotational               0.889              2.981             32.306
 Vibrational             33.023             25.225             32.823
 Vibration     1          0.593              1.986              7.134
 Vibration     2          0.594              1.982              5.501
 Vibration     3          0.598              1.969              4.192
 Vibration     4          0.610              1.929              3.041
 Vibration     5          0.634              1.851              2.208
 Vibration     6          0.656              1.785              1.828
 Vibration     7          0.659              1.773              1.776
 Vibration     8          0.683              1.701              1.501
 Vibration     9          0.720              1.596              1.212
 Vibration    10          0.743              1.530              1.073
 Vibration    11          0.760              1.485              0.988
 Vibration    12          0.801              1.380              0.823
 Vibration    13          0.877              1.202              0.606
                       Q            Log10(Q)             Ln(Q)
 Total Bot       0.642711D-02         -2.191984         -5.047230
 Total V=0       0.538980D+19         18.731573         43.131040
 Vib (Bot)       0.927131D-17        -17.032859        -39.219607
 Vib (Bot)    1  0.133212D+02          1.124543          2.589357
 Vib (Bot)    2  0.584507D+01          0.766790          1.765599
 Vib (Bot)    3  0.300537D+01          0.477899          1.100402
 Vib (Bot)    4  0.165031D+01          0.217565          0.500962
 Vib (Bot)    5  0.104112D+01          0.017501          0.040298
 Vib (Bot)    6  0.829683D+00         -0.081088         -0.186711
 Vib (Bot)    7  0.803308D+00         -0.095118         -0.219017
 Vib (Bot)    8  0.671592D+00         -0.172895         -0.398105
 Vib (Bot)    9  0.546104D+00         -0.262725         -0.604946
 Vib (Bot)   10  0.489308D+00         -0.310418         -0.714763
 Vib (Bot)   11  0.455633D+00         -0.341385         -0.786068
 Vib (Bot)   12  0.391521D+00         -0.407245         -0.937716
 Vib (Bot)   13  0.308884D+00         -0.510204         -1.174789
 Vib (V=0)       0.777495D+04          3.890698          8.958663
 Vib (V=0)    1  0.138306D+02          1.140841          2.626882
 Vib (V=0)    2  0.636642D+01          0.803895          1.851037
 Vib (V=0)    3  0.354668D+01          0.549822          1.266013
 Vib (V=0)    4  0.222439D+01          0.347211          0.799482
 Vib (V=0)    5  0.165496D+01          0.218788          0.503777
 Vib (V=0)    6  0.146870D+01          0.166932          0.384376
 Vib (V=0)    7  0.144620D+01          0.160230          0.368943
 Vib (V=0)    8  0.133728D+01          0.126222          0.290637
 Vib (V=0)    9  0.124043D+01          0.093571          0.215454
 Vib (V=0)   10  0.119959D+01          0.079032          0.181978
 Vib (V=0)   11  0.117646D+01          0.070578          0.162512
 Vib (V=0)   12  0.113505D+01          0.055015          0.126677
 Vib (V=0)   13  0.108772D+01          0.036515          0.084080
 Electronic      0.100000D+01          0.000000          0.000000
 Translational   0.270440D+09          8.432071         19.415561
 Rotational      0.256333D+07          6.408804         14.756816
 ***** Axes restored to original set *****
 -------------------------------------------------------------------
 Center     Atomic                   Forces (Hartrees/Bohr)
 Number     Number              X              Y              Z
 -------------------------------------------------------------------
      1        6          -0.000019211    0.000011321    0.000009514
      2        6           0.000012385   -0.000014546   -0.000003936
      3        1          -0.000002736   -0.000003025   -0.000004795
      4        1          -0.000004569    0.000003719    0.000000150
      5        1           0.000001647   -0.000002598   -0.000002923
      6       50           0.000001489    0.000001761    0.000003542
      7       50           0.000003111    0.000002333    0.000003623
      8       35           0.000005182    0.000000466   -0.000002245
      9        1           0.000002075   -0.000004352   -0.000002026
     10        9           0.000000627    0.000004923   -0.000000904
 -------------------------------------------------------------------
 Cartesian Forces:  Max     0.000019211 RMS     0.000006302

 GradGradGradGradGradGradGradGradGradGradGradGradGradGradGradGradGradGrad
 Berny optimization.
 Internal  Forces:  Max     0.000015139 RMS     0.000006307
 Search for a local minimum.
 Step number   1 out of a maximum of    2
 All quantities printed in internal units (Hartrees-Bohrs-Radians)
 Second derivative matrix not updated -- analytic derivatives used.
     Eigenvalues ---    0.00169   0.00570   0.00775   0.01378   0.02985
     Eigenvalues ---    0.03866   0.04026   0.05332   0.06008   0.06787
     Eigenvalues ---    0.07962   0.09267   0.10285   0.12043   0.13511
     Eigenvalues ---    0.14001   0.14132   0.14258   0.17549   0.21708
     Eigenvalues ---    0.24033   0.37190   0.41670   0.719031000.00000
     Eigenvalues --- 1000.000001000.000001000.000001000.000001000.00000
     Eigenvalues --- 1000.000001000.000001000.00000
 Angle between quadratic step and forces=  59.39 degrees.
 Linear search not attempted -- first point.
 Iteration  1 RMS(Cart)=  0.00068284 RMS(Int)=  0.00000015
 Iteration  2 RMS(Cart)=  0.00000017 RMS(Int)=  0.00000001
 Variable       Old X    -DE/DX   Delta X   Delta X   Delta X     New X
                                 (Linear)    (Quad)   (Total)
    R1        2.50371   0.00000   0.00000   0.00000   0.00000   2.50371
    R2        3.66339   0.00000   0.00000  -0.00003  -0.00003   3.66336
    R3        2.02197   0.00000   0.00000   0.00001   0.00001   2.02198
    R4        4.11308   0.00000   0.00000   0.00001   0.00001   4.11309
    R5        2.67289   0.00000   0.00000  -0.00005  -0.00005   2.67284
    R6        3.24940   0.00000   0.00000   0.00004   0.00004   3.24944
    R7        3.25579   0.00000   0.00000   0.00002   0.00002   3.25580
    R8        3.24628   0.00000   0.00000   0.00000   0.00000   3.24628
    R9        5.29963   0.00000   0.00000  -0.00004  -0.00004   5.29960
    A1        2.13300   0.00002   0.00000   0.00006   0.00006   2.13306
    A2        2.16640  -0.00001   0.00000  -0.00006  -0.00006   2.16633
    A3        1.98376   0.00000   0.00000   0.00001   0.00001   1.98376
    A4        2.35200  -0.00001   0.00000  -0.00021  -0.00021   2.35179
    A5        1.98928   0.00000   0.00000   0.00002   0.00002   1.98931
    A6        1.93973   0.00001   0.00000   0.00018   0.00018   1.93992
    A7        1.76057   0.00000   0.00000  -0.00001  -0.00001   1.76056
    A8        1.83596   0.00001   0.00000   0.00020   0.00020   1.83616
    A9        1.94421  -0.00001   0.00000  -0.00048  -0.00048   1.94373
   A10        1.77637   0.00000   0.00000   0.00005   0.00005   1.77642
   A11        2.00711  -0.00001   0.00000  -0.00025  -0.00025   2.00685
   A12        2.05859   0.00001   0.00000   0.00049   0.00049   2.05907
    D1       -0.05503   0.00000   0.00000  -0.00014  -0.00014  -0.05516
    D2       -3.11767   0.00000   0.00000  -0.00003  -0.00003  -3.11769
    D3        3.07723   0.00000   0.00000  -0.00004  -0.00004   3.07719
    D4        0.01459   0.00000   0.00000   0.00007   0.00007   0.01466
    D5        0.76476   0.00000   0.00000   0.00084   0.00084   0.76560
    D6        2.78791   0.00000   0.00000   0.00038   0.00038   2.78829
    D7       -2.45417   0.00000   0.00000   0.00073   0.00073  -2.45345
    D8       -0.43102   0.00000   0.00000   0.00027   0.00027  -0.43075
    D9        3.12818   0.00000   0.00000   0.00044   0.00044   3.12862
   D10        1.03107   0.00000   0.00000   0.00018   0.00018   1.03124
   D11       -1.26235   0.00000   0.00000   0.00033   0.00033  -1.26201
   D12        2.92372   0.00000   0.00000   0.00007   0.00007   2.92379
         Item               Value     Threshold  Converged?
 Maximum Force            0.000015     0.000450     YES
 RMS     Force            0.000006     0.000300     YES
 Maximum Displacement     0.001580     0.001800     YES
 RMS     Displacement     0.000683     0.001200     YES
 Predicted change in Energy=-1.453331D-08
 Optimization completed.
    -- Stationary point found.
                           ----------------------------
                           !   Optimized Parameters   !
                           ! (Angstroms and Degrees)  !
 --------------------------                            --------------------------
 ! Name  Definition              Value          Derivative Info.                !
 --------------------------------------------------------------------------------
 ! R1    R(1,2)                  1.3249         -DE/DX =    0.0                 !
 ! R2    R(1,8)                  1.9386         -DE/DX =    0.0                 !
 ! R3    R(1,9)                  1.07           -DE/DX =    0.0                 !
 ! R4    R(2,6)                  2.1765         -DE/DX =    0.0                 !
 ! R5    R(2,10)                 1.4144         -DE/DX =    0.0                 !
 ! R6    R(3,6)                  1.7195         -DE/DX =    0.0                 !
 ! R7    R(4,7)                  1.7229         -DE/DX =    0.0                 !
 ! R8    R(5,7)                  1.7179         -DE/DX =    0.0                 !
 ! R9    R(6,7)                  2.8044         -DE/DX =    0.0                 !
 ! A1    A(2,1,8)              122.2119         -DE/DX =    0.0                 !
 ! A2    A(2,1,9)              124.1253         -DE/DX =    0.0                 !
 ! A3    A(8,1,9)              113.6609         -DE/DX =    0.0                 !
 ! A4    A(1,2,6)              134.7598         -DE/DX =    0.0                 !
 ! A5    A(1,2,10)             113.9775         -DE/DX =    0.0                 !
 ! A6    A(6,2,10)             111.1385         -DE/DX =    0.0                 !
 ! A7    A(2,6,3)              100.8733         -DE/DX =    0.0                 !
 ! A8    A(2,6,7)              105.1927         -DE/DX =    0.0                 !
 ! A9    A(3,6,7)              111.3951         -DE/DX =    0.0                 !
 ! A10   A(4,7,5)              101.7786         -DE/DX =    0.0                 !
 ! A11   A(4,7,6)              114.9988         -DE/DX =    0.0                 !
 ! A12   A(5,7,6)              117.9483         -DE/DX =    0.0                 !
 ! D1    D(8,1,2,6)             -3.1528         -DE/DX =    0.0                 !
 ! D2    D(8,1,2,10)          -178.6291         -DE/DX =    0.0                 !
 ! D3    D(9,1,2,6)            176.3123         -DE/DX =    0.0                 !
 ! D4    D(9,1,2,10)             0.836          -DE/DX =    0.0                 !
 ! D5    D(1,2,6,3)             43.8176         -DE/DX =    0.0                 !
 ! D6    D(1,2,6,7)            159.7354         -DE/DX =    0.0                 !
 ! D7    D(10,2,6,3)          -140.6137         -DE/DX =    0.0                 !
 ! D8    D(10,2,6,7)           -24.6959         -DE/DX =    0.0                 !
 ! D9    D(2,6,7,4)            179.2316         -DE/DX =    0.0                 !
 ! D10   D(2,6,7,5)             59.0757         -DE/DX =    0.0                 !
 ! D11   D(3,6,7,4)            -72.3272         -DE/DX =    0.0                 !
 ! D12   D(3,6,7,5)            167.5169         -DE/DX =    0.0                 !
 --------------------------------------------------------------------------------
 GradGradGradGradGradGradGradGradGradGradGradGradGradGradGradGradGradGrad

 1\1\GINC-MALLOS66\Freq\RHF\LANL2DZ\C2H4Br1F1Sn2\MARLIN\24-Oct-2024\0\\
 #N Geom=AllCheck Guess=TCheck SCRF=Check GenChk RHF/LANL2DZ Freq\\Titl
 e Card Required\\0,1\C,2.2960559574,2.9416563574,-0.0531233548\C,1.710
 2507578,1.7606741361,0.0791162695\H,-1.2174814273,2.1378141258,-0.5471
 459824\H,-1.9325245755,-2.3506530452,-0.1866102399\H,0.6722379948,-2.6
 876798023,0.2922668621\Sn,-0.3216860322,1.0947206442,0.4854344252\Sn,-
 0.4176777856,-1.5610455959,-0.4104493317\Br,1.3005717518,4.6033463873,
 0.0236730053\H,3.3469300739,3.0771335754,-0.202023698\F,2.6045844048,0
 .6661904572,0.0253256147\\Version=EM64L-G09RevA.01\State=1-A\HF=-196.7
 85238\RMSD=1.440e-09\RMSF=6.302e-06\ZeroPoint=0.0454892\Thermal=0.0554
 585\Dipole=-0.5586235,-0.5271766,-0.1613579\DipoleDeriv=-0.2030341,-0.
 9094287,-0.0465999,-0.1392626,0.6832389,0.0422022,-0.0305031,0.0498728
 ,-0.273078,0.2455847,-0.3249246,0.0564784,-0.364384,0.3352147,0.018872
 4,0.1806874,0.5026576,0.0583033,-0.2881495,-0.1148176,-0.0261378,0.076
 2776,-0.1852378,0.1549472,-0.0911943,0.4766417,-0.0585551,-0.3704593,-
 0.2081573,-0.0681912,-0.1548425,-0.3681454,0.0435839,0.0730379,0.40551
 9,-0.0147086,-0.2572478,-0.005131,-0.0193913,0.0903299,-0.3978814,0.08
 26944,-0.0321659,0.4545347,-0.0077749,0.9435171,0.7738532,0.0942953,0.
 1921056,0.5578071,-0.2995976,-0.1083707,-0.951318,0.1455605,0.7651778,
 0.1715807,0.055566,0.0408362,0.8816042,-0.1256956,-0.0567617,-0.890616
 2,0.1463426,-0.1085816,0.2384696,0.0194413,0.0120232,-0.4464731,0.0030
 971,0.0236753,-0.0022341,-0.0613037,0.0025251,0.070976,0.0373545,0.022
 5462,-0.1440615,-0.002114,0.0062869,-0.0625258,0.2648285,-0.7293324,0.
 3075796,-0.1028154,0.2243705,-0.9160658,0.08201,0.0353082,0.0174682,-0
 .1996148\Polar=93.5092115,12.7676319,215.7675945,4.5448228,45.3438626,
 71.6316675\HyperPolar=-81.9122382,8.851631,-97.6574476,-722.0647289,23
 .1297282,-53.7197845,-410.8603658,-51.1464667,-210.004603,-1.1771772\P
 G=C01 [X(C2H4Br1F1Sn2)]\NImag=0\\0.67500009,0.22331244,0.73849958,-0.0
 8850843,-0.05948624,0.11823742,-0.22533163,-0.21194315,0.03206810,0.48
 554230,-0.26070403,-0.51567961,0.05660989,0.17063488,0.74193356,0.0372
 4048,0.05058507,-0.06401927,-0.06624341,-0.06151775,0.10609553,-0.0005
 1892,0.00087202,0.00073081,-0.00302709,0.00586933,-0.00852111,0.049421
 19,0.00181369,-0.00133374,0.00015972,-0.00048291,0.00239152,-0.0028720
 7,-0.03955749,0.06006295,-0.00026704,-0.00051199,0.00005795,0.00233009
 ,0.00124446,0.00032567,0.04012844,-0.04922461,0.05254972,-0.00001444,0
 .00017239,-0.00006851,0.00002954,0.00087840,-0.00004021,0.00007540,0.0
 0002679,0.00032421,0.11230921,-0.00090571,0.00022221,0.00014457,0.0006
 6626,-0.00128606,-0.00225377,0.00036536,-0.00077301,-0.00107556,0.0501
 5209,0.03914670,-0.00045460,-0.00012191,0.00014445,-0.00030148,-0.0018
 6639,0.00034480,0.00022450,-0.00153479,-0.00164302,-0.01223441,-0.0095
 3743,0.00798816,0.00020237,-0.00005519,-0.00000840,-0.00028578,0.00088
 299,0.00004658,0.00020465,-0.00012025,-0.00042256,-0.00738760,0.006945
 42,-0.00513204,0.06740891,-0.00032394,0.00007558,0.00002587,0.00047881
 ,-0.00052398,-0.00099840,0.00006248,-0.00161166,-0.00229518,-0.0038847
 4,0.00409482,-0.00111189,-0.05283478,0.06691437,0.00043070,-0.00051226
 ,0.00013552,-0.00070683,0.00010857,-0.00203778,-0.00053390,-0.00211443
 ,-0.00030267,0.00173033,0.00002718,0.00122385,0.03448182,-0.03596876,0
 .02678882,0.00465984,-0.00285199,-0.00004385,-0.10386383,-0.03527931,0
 .02456187,-0.04169113,0.04027541,-0.04497893,0.00007213,-0.00417939,-0
 .00211474,0.00021976,0.00225547,-0.00043469,0.15879642,-0.01420503,0.0
 0185984,0.00128780,-0.03643041,-0.02728809,0.02081304,0.03200427,-0.06
 139931,0.05900105,0.00156395,0.00541698,-0.00106837,-0.00028249,0.0043
 4505,-0.00177253,-0.00013919,0.14478828,-0.00132568,0.00129815,0.00385
 179,0.01546524,0.00476616,-0.02463147,-0.03376011,0.04618272,-0.053002
 14,0.00059818,0.00690756,0.00277929,0.00014970,0.00803247,0.00411421,0
 .02220763,-0.05958946,0.07584358,-0.00222965,0.00047343,0.00043995,0.0
 0089672,-0.00727077,-0.00202780,0.00017024,0.00183474,0.00105295,-0.10
 508814,-0.05322603,0.01917177,-0.06073194,0.05463640,-0.03604510,-0.00
 657549,-0.00039251,-0.00040323,0.17411395,0.00233938,-0.00061263,-0.00
 011546,0.00018359,0.00185182,-0.00374150,0.00057592,0.00192186,-0.0051
 0546,-0.04824462,-0.04590912,0.01549865,0.04602828,-0.07329678,0.04123
 924,-0.00431857,-0.05720850,-0.00885959,0.00299165,0.17205631,0.001221
 29,0.00049983,-0.00037385,0.00183426,0.00479915,0.00145905,0.00049652,
 0.00889535,0.00189249,0.00968599,0.00566664,-0.01083310,-0.02919373,0.
 03206410,-0.03000858,0.00015240,-0.01439773,-0.01475218,0.01807610,-0.
 03952332,0.05285229,-0.06403132,0.05026980,0.00442271,0.00088005,-0.00
 344710,-0.00070617,0.00003163,-0.00205753,-0.00001391,0.00003854,-0.00
 000009,-0.00001891,0.00001819,-0.00011387,-0.00013438,-0.00297185,0.00
 086485,0.00011841,0.00015026,-0.00021822,0.00024125,0.06865399,0.04932
 371,-0.11259736,-0.00319520,0.02670957,-0.02300993,-0.00182253,-0.0009
 3968,-0.00087286,-0.00032826,-0.00012750,-0.00018965,-0.00000435,-0.00
 006655,-0.00013347,0.00003836,0.00183391,-0.00117906,-0.00093909,0.000
 15927,0.00034021,0.00019637,-0.07501561,0.15847633,0.00410835,-0.00305
 217,-0.01863524,-0.00163706,0.00096057,-0.00135351,-0.00034727,-0.0002
 1131,0.00021541,-0.00001376,-0.00011802,0.00003309,0.00002128,-0.00003
 774,-0.00010374,0.00048315,0.00009281,-0.00148287,-0.00016087,-0.00010
 818,0.00007564,-0.00458556,0.00531524,0.00970730,-0.39210735,-0.055367
 26,0.05019145,-0.00657782,0.00518392,0.00322941,0.00014919,-0.00010014
 ,-0.00002550,0.00004307,0.00006373,-0.00008880,0.00000909,0.00000793,-
 0.00000995,-0.00019076,-0.00020945,0.00050004,-0.00000541,0.00015453,0
 .00020752,-0.00429013,-0.00033809,0.00103088,0.40077232,-0.04688119,-0
 .05554870,0.00710940,-0.03463837,-0.00131777,0.00591029,-0.00022520,0.
 00028122,-0.00000715,-0.00000658,-0.00017937,-0.00012411,0.00004348,-0
 .00007856,0.00009476,0.00132625,-0.00192722,-0.00044401,-0.00041757,0.
 00062201,0.00034000,0.02946603,-0.01425442,-0.00351649,0.04956988,0.06
 926612,0.04926061,0.00839585,-0.05004813,0.00571726,0.00098850,0.01943
 883,0.00074479,0.00032406,-0.00018087,0.00003528,0.00035519,-0.0000997
 8,-0.00002784,0.00015879,0.00023116,-0.00051317,-0.00127087,0.00406404
 ,0.00028177,0.00037543,-0.00004758,-0.00012489,0.00006774,0.00299144,-
 0.05333289,-0.00856076,0.03322297,0.00437100,-0.00488248,0.00077618,-0
 .14826248,0.12325169,0.01246036,-0.00481516,-0.00163230,0.00187226,-0.
 00007772,0.00011836,0.00094871,0.00034234,-0.00028377,0.00122199,-0.00
 845509,0.01722601,-0.00355017,-0.00070054,0.00050807,-0.00272158,0.001
 52064,-0.00153905,0.00110086,0.00219779,0.00176326,-0.00204093,0.15387
 923,0.04623068,-0.05488516,-0.00254034,0.08482173,-0.17707145,-0.00410
 238,0.00097300,0.00133302,-0.00169731,-0.00053019,-0.00054349,-0.00012
 941,-0.00054092,0.00021464,-0.00114015,0.00107740,-0.00740797,0.002645
 09,0.00121139,0.00023482,0.00145962,0.00025173,-0.00657979,0.00067528,
 0.00103496,0.00313670,-0.00083394,-0.13452978,0.24156870,-0.00170569,0
 .00290566,0.01064934,0.01147383,-0.00609317,-0.03562186,0.00083734,0.0
 0039535,0.00008745,-0.00001709,-0.00011636,0.00006224,0.00008519,0.000
 13074,-0.00004079,0.00068033,-0.00309574,0.00321574,-0.00038555,0.0003
 4020,-0.00026419,0.00080146,0.00067173,0.00855247,-0.00170217,-0.00080
 194,-0.00957207,-0.01006766,0.00566353,0.02293167\\0.00001921,-0.00001
 132,-0.00000951,-0.00001238,0.00001455,0.00000394,0.00000274,0.0000030
 3,0.00000479,0.00000457,-0.00000372,-0.00000015,-0.00000165,0.00000260
 ,0.00000292,-0.00000149,-0.00000176,-0.00000354,-0.00000311,-0.0000023
 3,-0.00000362,-0.00000518,-0.00000047,0.00000225,-0.00000208,0.0000043
 5,0.00000203,-0.00000063,-0.00000492,0.00000090\\\@


 IF YOU PERCEIVE THAT THERE ARE FOUR POSSIBLE WAYS IN
 WHICH A PROCEDURE CAN GO WRONG AND CIRCUMVENT THESE, 
 THEN A FIFTH WAY WILL DEVELOP.

                              -- MURPHY'S TWELFTH LAW
 Job cpu time:  0 days  0 hours  0 minutes 50.9 seconds.
 File lengths (MBytes):  RWF=      9 Int=      0 D2E=      0 Chk=      1 Scr=      1
 Normal termination of Gaussian 09 at Thu Oct 24 12:07:33 2024.
