 Entering Gaussian System, Link 0=g09
 Initial command:
 /u/local/G09/g09/l1.exe /tmp1/marlin/22676.mallos00.local/Gau-84112.inp -scrdir=/tmp1/marlin/22676.mallos00.local/
 Entering Link 1 = /u/local/G09/g09/l1.exe PID=     84113.
  
 Copyright (c) 1988,1990,1992,1993,1995,1998,2003,2009, Gaussian, Inc.
                  All Rights Reserved.
  
 This is part of the Gaussian(R) 09 program.  It is based on
 the Gaussian(R) 03 system (copyright 2003, Gaussian, Inc.),
 the Gaussian(R) 98 system (copyright 1998, Gaussian, Inc.),
 the Gaussian(R) 94 system (copyright 1995, Gaussian, Inc.),
 the Gaussian 92(TM) system (copyright 1992, Gaussian, Inc.),
 the Gaussian 90(TM) system (copyright 1990, Gaussian, Inc.),
 the Gaussian 88(TM) system (copyright 1988, Gaussian, Inc.),
 the Gaussian 86(TM) system (copyright 1986, Carnegie Mellon
 University), and the Gaussian 82(TM) system (copyright 1983,
 Carnegie Mellon University). Gaussian is a federally registered
 trademark of Gaussian, Inc.
  
 This software contains proprietary and confidential information,
 including trade secrets, belonging to Gaussian, Inc.
  
 This software is provided under written license and may be
 used, copied, transmitted, or stored only in accord with that
 written license.
  
 The following legend is applicable only to US Government
 contracts under FAR:
  
                    RESTRICTED RIGHTS LEGEND
  
 Use, reproduction and disclosure by the US Government is
 subject to restrictions as set forth in subparagraphs (a)
 and (c) of the Commercial Computer Software - Restricted
 Rights clause in FAR 52.227-19.
  
 Gaussian, Inc.
 340 Quinnipiac St., Bldg. 40, Wallingford CT 06492
  
  
 ---------------------------------------------------------------
 Warning -- This program may not be used in any manner that
 competes with the business of Gaussian, Inc. or will provide
 assistance to any competitor of Gaussian, Inc.  The licensee
 of this program is prohibited from giving any competitor of
 Gaussian, Inc. access to this program.  By using this program,
 the user acknowledges that Gaussian, Inc. is engaged in the
 business of creating and licensing software in the field of
 computational chemistry and represents and warrants to the
 licensee that it is not a competitor of Gaussian, Inc. and that
 it will not use this program in any manner prohibited above.
 ---------------------------------------------------------------
  

 Cite this work as:
 Gaussian 09, Revision A.01,
 M. J. Frisch, G. W. Trucks, H. B. Schlegel, G. E. Scuseria, 
 M. A. Robb, J. R. Cheeseman, G. Scalmani, V. Barone, B. Mennucci, 
 G. A. Petersson, H. Nakatsuji, M. Caricato, X. Li, H. P. Hratchian, 
 A. F. Izmaylov, J. Bloino, G. Zheng, J. L. Sonnenberg, M. Hada, 
 M. Ehara, K. Toyota, R. Fukuda, J. Hasegawa, M. Ishida, T. Nakajima, 
 Y. Honda, O. Kitao, H. Nakai, T. Vreven, J. A. Montgomery, Jr., 
 J. E. Peralta, F. Ogliaro, M. Bearpark, J. J. Heyd, E. Brothers, 
 K. N. Kudin, V. N. Staroverov, R. Kobayashi, J. Normand, 
 K. Raghavachari, A. Rendell, J. C. Burant, S. S. Iyengar, J. Tomasi, 
 M. Cossi, N. Rega, J. M. Millam, M. Klene, J. E. Knox, J. B. Cross, 
 V. Bakken, C. Adamo, J. Jaramillo, R. Gomperts, R. E. Stratmann, 
 O. Yazyev, A. J. Austin, R. Cammi, C. Pomelli, J. W. Ochterski, 
 R. L. Martin, K. Morokuma, V. G. Zakrzewski, G. A. Voth, 
 P. Salvador, J. J. Dannenberg, S. Dapprich, A. D. Daniels, 
 O. Farkas, J. B. Foresman, J. V. Ortiz, J. Cioslowski, 
 and D. J. Fox, Gaussian, Inc., Wallingford CT, 2009.
 
 ******************************************
 Gaussian 09:  EM64L-G09RevA.01  8-May-2009
                24-Oct-2024 
 ******************************************
 %mem=103GB
 %nproc=20
 Will use up to   20 processors via shared memory.
 %chk=2-mp2.chk
 --------------------------------------------
 # opt freq=noraman mp2/lanl2dz geom=allcheck
 --------------------------------------------
 1/18=20,19=15,29=7,38=1/1,3;
 2/9=110,12=2,40=1/2;
 3/5=6,6=3,11=9,14=-4,16=1,25=1,30=1,71=1/1,2,3;
 4//1;
 5/5=2,38=5/2;
 8/6=4,10=1/1;
 9/15=2,16=-3/6;
 10/5=1/2;
 6/7=2,8=2,9=2,10=2/1;
 7/12=2/1,2,3,16;
 1/18=20,19=15/3(2);
 2/9=110/2;
 99//99;
 2/9=110/2;
 3/5=6,6=3,11=9,14=-2,16=1,25=1,30=1,71=1/1,2,3;
 4/5=5,16=3/1;
 5/5=2,38=5/2;
 8/6=4,10=1/1;
 9/15=2,16=-3/6;
 10/5=1/2;
 7/12=2/1,2,3,16;
 1/18=20,19=15/3(-8);
 2/9=110/2;
 6/7=2,8=2,9=2,10=2/1;
 99//99;
 -------------------
 Title Card Required
 -------------------
 Redundant internal coordinates taken from checkpoint file:
 2-mp2.chk
 Charge =  0 Multiplicity = 1
 C,0,2.2960559574,2.9416563574,-0.0531233548
 C,0,1.7102507578,1.7606741361,0.0791162695
 H,0,-1.2174814273,2.1378141258,-0.5471459824
 H,0,-1.9325245755,-2.3506530452,-0.1866102399
 H,0,0.6722379948,-2.6876798023,0.2922668621
 Sn,0,-0.3216860322,1.0947206442,0.4854344252
 Sn,0,-0.4176777856,-1.5610455959,-0.4104493317
 Br,0,1.3005717518,4.6033463873,0.0236730053
 H,0,3.3469300739,3.0771335754,-0.202023698
 F,0,2.6045844048,0.6661904572,0.0253256147
 Recover connectivity data from disk.

 GradGradGradGradGradGradGradGradGradGradGradGradGradGradGradGradGradGrad
 Berny optimization.
 Initialization pass.
                           ----------------------------
                           !    Initial Parameters    !
                           ! (Angstroms and Degrees)  !
 --------------------------                            --------------------------
 ! Name  Definition              Value          Derivative Info.                !
 --------------------------------------------------------------------------------
 ! R1    R(1,2)                  1.3249         estimate D2E/DX2                !
 ! R2    R(1,8)                  1.9386         estimate D2E/DX2                !
 ! R3    R(1,9)                  1.07           estimate D2E/DX2                !
 ! R4    R(2,6)                  2.1765         estimate D2E/DX2                !
 ! R5    R(2,10)                 1.4144         estimate D2E/DX2                !
 ! R6    R(3,6)                  1.7195         estimate D2E/DX2                !
 ! R7    R(4,7)                  1.7229         estimate D2E/DX2                !
 ! R8    R(5,7)                  1.7179         estimate D2E/DX2                !
 ! R9    R(6,7)                  2.8044         estimate D2E/DX2                !
 ! A1    A(2,1,8)              122.2119         estimate D2E/DX2                !
 ! A2    A(2,1,9)              124.1253         estimate D2E/DX2                !
 ! A3    A(8,1,9)              113.6609         estimate D2E/DX2                !
 ! A4    A(1,2,6)              134.7598         estimate D2E/DX2                !
 ! A5    A(1,2,10)             113.9775         estimate D2E/DX2                !
 ! A6    A(6,2,10)             111.1385         estimate D2E/DX2                !
 ! A7    A(2,6,3)              100.8733         estimate D2E/DX2                !
 ! A8    A(2,6,7)              105.1927         estimate D2E/DX2                !
 ! A9    A(3,6,7)              111.3951         estimate D2E/DX2                !
 ! A10   A(4,7,5)              101.7786         estimate D2E/DX2                !
 ! A11   A(4,7,6)              114.9988         estimate D2E/DX2                !
 ! A12   A(5,7,6)              117.9483         estimate D2E/DX2                !
 ! D1    D(8,1,2,6)             -3.1528         estimate D2E/DX2                !
 ! D2    D(8,1,2,10)          -178.6291         estimate D2E/DX2                !
 ! D3    D(9,1,2,6)            176.3123         estimate D2E/DX2                !
 ! D4    D(9,1,2,10)             0.836          estimate D2E/DX2                !
 ! D5    D(1,2,6,3)             43.8176         estimate D2E/DX2                !
 ! D6    D(1,2,6,7)            159.7354         estimate D2E/DX2                !
 ! D7    D(10,2,6,3)          -140.6137         estimate D2E/DX2                !
 ! D8    D(10,2,6,7)           -24.6959         estimate D2E/DX2                !
 ! D9    D(2,6,7,4)            179.2316         estimate D2E/DX2                !
 ! D10   D(2,6,7,5)             59.0757         estimate D2E/DX2                !
 ! D11   D(3,6,7,4)            -72.3272         estimate D2E/DX2                !
 ! D12   D(3,6,7,5)            167.5169         estimate D2E/DX2                !
 --------------------------------------------------------------------------------
 Trust Radius=3.00D-01 FncErr=1.00D-07 GrdErr=1.00D-07
 Number of steps in this run=  43 maximum allowed number of steps= 100.
 GradGradGradGradGradGradGradGradGradGradGradGradGradGradGradGradGradGrad

                          Input orientation:                          
 ---------------------------------------------------------------------
 Center     Atomic      Atomic             Coordinates (Angstroms)
 Number     Number       Type             X           Y           Z
 ---------------------------------------------------------------------
      1          6           0        2.296056    2.941656   -0.053123
      2          6           0        1.710251    1.760674    0.079116
      3          1           0       -1.217481    2.137814   -0.547146
      4          1           0       -1.932525   -2.350653   -0.186610
      5          1           0        0.672238   -2.687680    0.292267
      6         50           0       -0.321686    1.094721    0.485434
      7         50           0       -0.417678   -1.561046   -0.410449
      8         35           0        1.300572    4.603346    0.023673
      9          1           0        3.346930    3.077134   -0.202024
     10          9           0        2.604584    0.666190    0.025326
 ---------------------------------------------------------------------
                    Distance matrix (angstroms):
                    1          2          3          4          5
     1  C    0.000000
     2  C    1.324905   0.000000
     3  H    3.638017   3.017624   0.000000
     4  H    6.775489   5.499403   4.559343   0.000000
     5  H    5.869029   4.572828   5.249861   2.669775   0.000000
     6  Sn   3.248660   2.176547   1.719510   3.862259   3.915578
     7  Sn   5.269379   3.975120   3.786811   1.722888   1.717857
     8  Br   1.938582   2.872577   3.570053   7.671717   7.322978
     9  H    1.069982   2.119157   4.672824   7.571905   6.374274
    10  F    2.297627   1.414433   4.135407   5.452671   3.879905
                    6          7          8          9         10
     6  Sn   0.000000
     7  Sn   2.804446   0.000000
     8  Br   3.892994   6.414092   0.000000
     9  H    4.226264   5.977325   2.562781   0.000000
    10  F    2.993058   3.779491   4.147487   2.532866   0.000000
 Stoichiometry    C2H4BrFSn2
 Framework group  C1[X(C2H4BrFSn2)]
 Deg. of freedom    24
 Full point group                 C1      NOp   1
 Largest Abelian subgroup         C1      NOp   1
 Largest concise Abelian subgroup C1      NOp   1
                         Standard orientation:                         
 ---------------------------------------------------------------------
 Center     Atomic      Atomic             Coordinates (Angstroms)
 Number     Number       Type             X           Y           Z
 ---------------------------------------------------------------------
      1          6           0       -2.373871    1.271180    0.023757
      2          6           0       -1.078383    1.051598    0.193661
      3          1           0       -0.476011   -1.678469   -0.942094
      4          1           0        3.979653   -1.072952   -0.188428
      5          1           0        3.449750    1.371367    0.745491
      6         50           0        0.168933   -0.726382    0.336301
      7         50           0        2.767453    0.149746   -0.251074
      8         35           0       -3.638599   -0.171284   -0.255281
      9          1           0       -2.824650    2.241517    0.034068
     10          9           0       -0.320390    2.225402    0.413327
 ---------------------------------------------------------------------
 Rotational constants (GHZ):      2.1457000      0.2405147      0.2221361
 Standard basis: LANL2DZ (5D, 7F)
 There are    59 symmetry adapted basis functions of A   symmetry.
 Integral buffers will be    131072 words long.
 Raffenetti 1 integral format.
 Two-electron integral symmetry is turned on.
    59 basis functions,   127 primitive gaussians,    59 cartesian basis functions
    20 alpha electrons       20 beta electrons
       nuclear repulsion energy       134.3006636909 Hartrees.
 NAtoms=   10 NActive=   10 NUniq=   10 SFac= 7.50D-01 NAtFMM=   80 NAOKFM=F Big=F
 One-electron integrals computed using PRISM.
   1 Symmetry operations used in ECPInt.
 ECPInt:  NShTT=     630 NPrTT=    3262 LenC2=     625 LenP2D=    2706.
 LDataN:  DoStor=T MaxTD1= 4 Len=   56
 NBasis=    59 RedAO= T  NBF=    59
 NBsUse=    59 1.00D-06 NBFU=    59
 Harris functional with IExCor=  205 diagonalized for initial guess.
 ExpMin= 6.30D-02 ExpMax= 1.00D+04 ExpMxC= 3.50D+02 IAcc=2 IRadAn=         0 AccDes= 0.00D+00
 HarFok:  IExCor=  205 AccDes= 0.00D+00 IRadAn=         0 IDoV= 1
 ScaDFX=  1.000000  1.000000  1.000000  1.000000
 Defaulting to unpruned grid for atomic number  50.
 Defaulting to unpruned grid for atomic number  50.
 Defaulting to unpruned grid for atomic number  50.
 Defaulting to unpruned grid for atomic number  50.
 Defaulting to unpruned grid for atomic number  50.
 Defaulting to unpruned grid for atomic number  50.
 Defaulting to unpruned grid for atomic number  50.
 Defaulting to unpruned grid for atomic number  50.
 Defaulting to unpruned grid for atomic number  50.
 Defaulting to unpruned grid for atomic number  50.
 Defaulting to unpruned grid for atomic number  50.
 Defaulting to unpruned grid for atomic number  50.
 Defaulting to unpruned grid for atomic number  50.
 Defaulting to unpruned grid for atomic number  50.
 Defaulting to unpruned grid for atomic number  50.
 Defaulting to unpruned grid for atomic number  50.
 Defaulting to unpruned grid for atomic number  50.
 Defaulting to unpruned grid for atomic number  50.
 Defaulting to unpruned grid for atomic number  50.
 Defaulting to unpruned grid for atomic number  50.
 FoFCou: FMM=F IPFlag=           0 FMFlag=      100000 FMFlg1=           0
         NFxFlg=           0 DoJE=T BraDBF=F KetDBF=T FulRan=T
         Omega=  0.000000  0.000000  1.000000  0.000000  0.000000 ICntrl=     500 IOpCl=  0
         NMat0=    1 NMatS0=    1 NMatT0=    0 NMatD0=    1 NMtDS0=    0 NMtDT0=    0
         I1Cent=           4 NGrid=           0.
 Petite list used in FoFCou.
 Initial guess orbital symmetries:
       Occupied  (A) (A) (A) (A) (A) (A) (A) (A) (A) (A) (A) (A)
                 (A) (A) (A) (A) (A) (A) (A) (A)
       Virtual   (A) (A) (A) (A) (A) (A) (A) (A) (A) (A) (A) (A)
                 (A) (A) (A) (A) (A) (A) (A) (A) (A) (A) (A) (A)
                 (A) (A) (A) (A) (A) (A) (A) (A) (A) (A) (A) (A)
                 (A) (A) (A)
 The electronic state of the initial guess is 1-A.
 Requested convergence on RMS density matrix=1.00D-08 within 128 cycles.
 Requested convergence on MAX density matrix=1.00D-06.
 Requested convergence on             energy=1.00D-06.
 No special actions if energy rises.
 Keep R1 ints in memory in canonical form, NReq=2397586.
 SCF Done:  E(RHF) =  -196.785238014     A.U. after   15 cycles
             Convg  =    0.8648D-08             -V/T =  2.0708
 ExpMin= 6.30D-02 ExpMax= 1.00D+04 ExpMxC= 3.50D+02 IAcc=3 IRadAn=         5 AccDes= 0.00D+00
 HarFok:  IExCor=  205 AccDes= 0.00D+00 IRadAn=         5 IDoV=-2
 ScaDFX=  1.000000  1.000000  1.000000  1.000000
 Defaulting to unpruned grid for atomic number  50.
 Defaulting to unpruned grid for atomic number  50.
 Defaulting to unpruned grid for atomic number  50.
 Defaulting to unpruned grid for atomic number  50.
 Defaulting to unpruned grid for atomic number  50.
 Defaulting to unpruned grid for atomic number  50.
 Defaulting to unpruned grid for atomic number  50.
 Defaulting to unpruned grid for atomic number  50.
 Defaulting to unpruned grid for atomic number  50.
 Defaulting to unpruned grid for atomic number  50.
 Defaulting to unpruned grid for atomic number  50.
 Defaulting to unpruned grid for atomic number  50.
 Defaulting to unpruned grid for atomic number  50.
 Defaulting to unpruned grid for atomic number  50.
 Defaulting to unpruned grid for atomic number  50.
 Defaulting to unpruned grid for atomic number  50.
 Defaulting to unpruned grid for atomic number  50.
 Defaulting to unpruned grid for atomic number  50.
 Defaulting to unpruned grid for atomic number  50.
 Defaulting to unpruned grid for atomic number  50.
 Range of M.O.s used for correlation:     4    59
 NBasis=    59 NAE=    20 NBE=    20 NFC=     3 NFV=     0
 NROrb=     56 NOA=    17 NOB=    17 NVA=    39 NVB=    39
 Fully direct method using O(ONN) memory.
 JobTyp=1 Pass  1:  I=   4 to  20 NPSUse= 20 ParTrn=T ParDer=T DoDerP=T.
 Spin components of T(2) and E(2):
     alpha-alpha T2 =       0.2071172810D-01 E2=     -0.4535514420D-01
     alpha-beta  T2 =       0.1601124013D+00 E2=     -0.3136926181D+00
     beta-beta   T2 =       0.2071172810D-01 E2=     -0.4535514420D-01
 ANorm=    0.1096145911D+01
 E2 =    -0.4044029065D+00 EUMP2 =    -0.19718964092035D+03
          IDoAtm=1111111111
          Differentiating once with respect to electric field.
                with respect to dipole field.
          Differentiating once with respect to nuclear coordinates.
          Keep R1 ints in memory in canonical form, NReq=2368185.
          There are     1 degrees of freedom in the 1st order CPHF.  IDoFFX=0.
 LinEq1:  Iter=  0 NonCon=     1 RMS=9.59D-03 Max=9.06D-02
 AX will form     1 AO Fock derivatives at one time.
 LinEq1:  Iter=  1 NonCon=     1 RMS=3.71D-03 Max=3.07D-02
 LinEq1:  Iter=  2 NonCon=     1 RMS=1.26D-03 Max=1.22D-02
 LinEq1:  Iter=  3 NonCon=     1 RMS=2.85D-04 Max=2.95D-03
 LinEq1:  Iter=  4 NonCon=     1 RMS=9.14D-05 Max=7.02D-04
 LinEq1:  Iter=  5 NonCon=     1 RMS=2.74D-05 Max=2.23D-04
 LinEq1:  Iter=  6 NonCon=     1 RMS=1.02D-05 Max=1.76D-04
 LinEq1:  Iter=  7 NonCon=     1 RMS=3.68D-06 Max=2.08D-05
 LinEq1:  Iter=  8 NonCon=     1 RMS=1.20D-06 Max=9.40D-06
 LinEq1:  Iter=  9 NonCon=     1 RMS=3.73D-07 Max=4.70D-06
 LinEq1:  Iter= 10 NonCon=     1 RMS=8.74D-08 Max=6.85D-07
 LinEq1:  Iter= 11 NonCon=     1 RMS=1.65D-08 Max=1.24D-07
 LinEq1:  Iter= 12 NonCon=     1 RMS=2.59D-09 Max=1.75D-08
 LinEq1:  Iter= 13 NonCon=     1 RMS=4.54D-10 Max=2.79D-09
 LinEq1:  Iter= 14 NonCon=     0 RMS=5.49D-11 Max=3.45D-10
 Linear equations converged to 1.000D-10 1.000D-09 after    14 iterations.
 End of Minotr Frequency-dependent properties file   721 does not exist.
 End of Minotr Frequency-dependent properties file   722 does not exist.

 **********************************************************************

            Population analysis using the SCF density.

 **********************************************************************

 Orbital symmetries:
       Occupied  (A) (A) (A) (A) (A) (A) (A) (A) (A) (A) (A) (A)
                 (A) (A) (A) (A) (A) (A) (A) (A)
       Virtual   (A) (A) (A) (A) (A) (A) (A) (A) (A) (A) (A) (A)
                 (A) (A) (A) (A) (A) (A) (A) (A) (A) (A) (A) (A)
                 (A) (A) (A) (A) (A) (A) (A) (A) (A) (A) (A) (A)
                 (A) (A) (A)
 The electronic state is 1-A.
 Alpha  occ. eigenvalues --  -26.29163 -11.33898 -11.30567  -1.59830  -1.10419
 Alpha  occ. eigenvalues --   -0.97865  -0.79404  -0.69879  -0.69357  -0.67133
 Alpha  occ. eigenvalues --   -0.65963  -0.60363  -0.52464  -0.47731  -0.46354
 Alpha  occ. eigenvalues --   -0.45061  -0.42300  -0.40206  -0.37271  -0.28685
 Alpha virt. eigenvalues --   -0.03748   0.07867   0.08702   0.13180   0.14468
 Alpha virt. eigenvalues --    0.15805   0.17577   0.21420   0.26770   0.30394
 Alpha virt. eigenvalues --    0.32097   0.32582   0.34116   0.35267   0.36498
 Alpha virt. eigenvalues --    0.40681   0.46920   0.48813   0.51800   0.59734
 Alpha virt. eigenvalues --    0.61140   0.67578   0.71354   0.71755   0.75628
 Alpha virt. eigenvalues --    0.87959   0.99745   1.16073   1.20781   1.22092
 Alpha virt. eigenvalues --    1.25532   1.26482   1.32399   1.38727   1.50239
 Alpha virt. eigenvalues --    2.33184  12.24229  13.42899  19.92161
          Condensed to atoms (all electrons):
              1          2          3          4          5          6
     1  C    5.678627   0.247517   0.003310   0.000000   0.000000  -0.088151
     2  C    0.247517   5.526621  -0.025965   0.000068   0.000097   0.197468
     3  H    0.003310  -0.025965   0.860197   0.000023   0.000008   0.352261
     4  H    0.000000   0.000068   0.000023   0.882107  -0.012917  -0.007755
     5  H    0.000000   0.000097   0.000008  -0.012917   0.851263  -0.008430
     6  Sn  -0.088151   0.197468   0.352261  -0.007755  -0.008430   2.789510
     7  Sn  -0.000756  -0.028554  -0.011317   0.329139   0.341683   0.235143
     8  Br   0.323729  -0.114270  -0.002183   0.000000   0.000000   0.005424
     9  H    0.347185  -0.022341   0.000003   0.000000   0.000000   0.002883
    10  F   -0.031391   0.122941   0.000178   0.000000  -0.000022  -0.032589
              7          8          9         10
     1  C   -0.000756   0.323729   0.347185  -0.031391
     2  C   -0.028554  -0.114270  -0.022341   0.122941
     3  H   -0.011317  -0.002183   0.000003   0.000178
     4  H    0.329139   0.000000   0.000000   0.000000
     5  H    0.341683   0.000000   0.000000  -0.000022
     6  Sn   0.235143   0.005424   0.002883  -0.032589
     7  Sn   2.673763   0.000112  -0.000029   0.002568
     8  Br   0.000112   6.832467  -0.049111   0.002300
     9  H   -0.000029  -0.049111   0.438377  -0.005048
    10  F    0.002568   0.002300  -0.005048   9.320642
 Mulliken atomic charges:
              1
     1  C   -0.480068
     2  C    0.096418
     3  H   -0.176516
     4  H   -0.190666
     5  H   -0.171682
     6  Sn   0.554236
     7  Sn   0.458247
     8  Br   0.001532
     9  H    0.288081
    10  F   -0.379580
 Sum of Mulliken atomic charges =   0.00000
 Mulliken charges with hydrogens summed into heavy atoms:
              1
     1  C   -0.191988
     2  C    0.096418
     6  Sn   0.377720
     7  Sn   0.095899
     8  Br   0.001532
    10  F   -0.379580
 Sum of Mulliken charges with hydrogens summed into heavy atoms =   0.00000
 Electronic spatial extent (au):  <R**2>=           1151.6556
 Charge=              0.0000 electrons
 Dipole moment (field-independent basis, Debye):
    X=              1.7409    Y=             -0.8481    Z=             -0.4796  Tot=              1.9949
 Quadrupole moment (field-independent basis, Debye-Ang):
   XX=            -66.4211   YY=            -70.0971   ZZ=            -69.1872
   XY=             -1.0468   XZ=             -5.2926   YZ=             -2.6516
 Traceless Quadrupole moment (field-independent basis, Debye-Ang):
   XX=              2.1474   YY=             -1.5287   ZZ=             -0.6187
   XY=             -1.0468   XZ=             -5.2926   YZ=             -2.6516
 Octapole moment (field-independent basis, Debye-Ang**2):
  XXX=             93.4575  YYY=            -47.0413  ZZZ=             -2.8289  XYY=             11.5133
  XXY=              4.9156  XXZ=            -14.0718  XZZ=             30.6087  YZZ=            -11.6193
  YYZ=             -3.7706  XYZ=             -2.8755
 Hexadecapole moment (field-independent basis, Debye-Ang**3):
 XXXX=          -2554.6393 YYYY=           -481.2311 ZZZZ=           -168.8406 XXXY=             81.3382
 XXXZ=            -77.7308 YYYX=             29.8056 YYYZ=            -26.9172 ZZZX=            -26.5952
 ZZZY=            -15.0706 XXYY=           -464.4822 XXZZ=           -439.5436 YYZZ=           -110.1941
 XXYZ=            -19.5938 YYXZ=            -13.1512 ZZXY=             21.1197
 N-N= 1.343006636909D+02 E-N=-7.256693311815D+02  KE= 1.837757538966D+02
   1 Symmetry operations used in ECPInt.
 ECPInt:  NShTT=     630 NPrTT=    3262 LenC2=     625 LenP2D=    2706.
 LDataN:  DoStor=T MaxTD1= 5 Len=  102
 Calling FoFJK, ICntrl=      2127 FMM=F ISym2X=0 I1Cent= 0 IOpClX= 0 NMat=1 NMatS=1 NMatT=0.
 ***** Axes restored to original set *****
 -------------------------------------------------------------------
 Center     Atomic                   Forces (Hartrees/Bohr)
 Number     Number              X              Y              Z
 -------------------------------------------------------------------
      1        6           0.004051388    0.036616293   -0.002048068
      2        6          -0.033945134   -0.019924732    0.006497177
      3        1          -0.003782387    0.002301394   -0.001574977
      4        1          -0.004072711   -0.000470863    0.000378580
      5        1           0.003524709   -0.001369813    0.002081696
      6       50           0.000748237   -0.008283525   -0.001607176
      7       50           0.000711158    0.008832947   -0.000260939
      8       35          -0.004288992    0.008728943    0.000362451
      9        1           0.016571307    0.000130820   -0.002721293
     10        9           0.020482424   -0.026561465   -0.001107451
 -------------------------------------------------------------------
 Cartesian Forces:  Max     0.036616293 RMS     0.012468473

 GradGradGradGradGradGradGradGradGradGradGradGradGradGradGradGradGradGrad
 Berny optimization.
 Internal  Forces:  Max     0.048197822 RMS     0.011034708
 Search for a local minimum.
 Step number   1 out of a maximum of   43
 All quantities printed in internal units (Hartrees-Bohrs-Radians)
 Mixed Optimization -- RFO/linear search
 Second derivative matrix not updated -- first step.
     Eigenvalues ---    0.00230   0.00230   0.01697   0.03082   0.03082
     Eigenvalues ---    0.03734   0.04681   0.06909   0.10647   0.11674
     Eigenvalues ---    0.12200   0.12297   0.12345   0.16000   0.16000
     Eigenvalues ---    0.16000   0.16489   0.22000   0.23856   0.24975
     Eigenvalues ---    0.25000   0.37232   0.43310   0.607251000.00000
     Eigenvalues --- 1000.000001000.000001000.000001000.000001000.00000
     Eigenvalues --- 1000.000001000.000001000.00000
 RFO step:  Lambda=-9.28686257D-03 EMin= 2.30000000D-03
 Linear search not attempted -- first point.
 Iteration  1 RMS(Cart)=  0.04387692 RMS(Int)=  0.00039251
 Iteration  2 RMS(Cart)=  0.00052353 RMS(Int)=  0.00009195
 Iteration  3 RMS(Cart)=  0.00000015 RMS(Int)=  0.00009195
 Variable       Old X    -DE/DX   Delta X   Delta X   Delta X     New X
                                 (Linear)    (Quad)   (Total)
    R1        2.50371   0.04820   0.00000   0.07817   0.07817   2.58188
    R2        3.66339   0.00970   0.00000   0.05569   0.05569   3.71907
    R3        2.02197   0.01667   0.00000   0.04368   0.04368   2.06566
    R4        4.11308   0.00219   0.00000   0.01736   0.01736   4.13044
    R5        2.67289   0.03355   0.00000   0.07583   0.07583   2.74872
    R6        3.24940   0.00431   0.00000   0.03260   0.03260   3.28201
    R7        3.25579   0.00385   0.00000   0.02929   0.02929   3.28508
    R8        3.24628   0.00399   0.00000   0.03003   0.03003   3.27631
    R9        5.29963  -0.00733   0.00000  -0.09352  -0.09352   5.20611
    A1        2.13300   0.00329   0.00000   0.01436   0.01436   2.14736
    A2        2.16640  -0.00364   0.00000  -0.01897  -0.01897   2.14742
    A3        1.98376   0.00035   0.00000   0.00465   0.00465   1.98840
    A4        2.35200  -0.00381   0.00000  -0.01455  -0.01455   2.33745
    A5        1.98928   0.00318   0.00000   0.01243   0.01242   2.00170
    A6        1.93973   0.00063   0.00000   0.00255   0.00254   1.94228
    A7        1.76057   0.00259   0.00000   0.03296   0.03277   1.79334
    A8        1.83596  -0.00013   0.00000   0.00494   0.00480   1.84076
    A9        1.94421  -0.00006   0.00000   0.00949   0.00917   1.95338
   A10        1.77637   0.00310   0.00000   0.01682   0.01668   1.79305
   A11        2.00711  -0.00223   0.00000  -0.01412  -0.01420   1.99291
   A12        2.05859  -0.00313   0.00000  -0.01937  -0.01945   2.03913
    D1       -0.05503   0.00023   0.00000   0.00777   0.00778  -0.04725
    D2       -3.11767   0.00006   0.00000  -0.00038  -0.00039  -3.11805
    D3        3.07723   0.00047   0.00000   0.01356   0.01357   3.09080
    D4        0.01459   0.00030   0.00000   0.00541   0.00540   0.01999
    D5        0.76476  -0.00061   0.00000  -0.01873  -0.01885   0.74591
    D6        2.78791   0.00030   0.00000   0.00638   0.00652   2.79443
    D7       -2.45417  -0.00035   0.00000  -0.01039  -0.01053  -2.46470
    D8       -0.43102   0.00056   0.00000   0.01472   0.01484  -0.41618
    D9        3.12818  -0.00148   0.00000  -0.01723  -0.01722   3.11096
   D10        1.03107  -0.00124   0.00000  -0.01211  -0.01219   1.01888
   D11       -1.26235   0.00142   0.00000   0.02719   0.02727  -1.23507
   D12        2.92372   0.00165   0.00000   0.03232   0.03231   2.95603
         Item               Value     Threshold  Converged?
 Maximum Force            0.048198     0.000450     NO 
 RMS     Force            0.011035     0.000300     NO 
 Maximum Displacement     0.107224     0.001800     NO 
 RMS     Displacement     0.044029     0.001200     NO 
 Predicted change in Energy=-4.807390D-03
 GradGradGradGradGradGradGradGradGradGradGradGradGradGradGradGradGradGrad

                          Input orientation:                          
 ---------------------------------------------------------------------
 Center     Atomic      Atomic             Coordinates (Angstroms)
 Number     Number       Type             X           Y           Z
 ---------------------------------------------------------------------
      1          6           0        2.302869    2.960474   -0.046004
      2          6           0        1.715350    1.732858    0.074345
      3          1           0       -1.272907    2.115252   -0.553015
      4          1           0       -1.954315   -2.329742   -0.175615
      5          1           0        0.693178   -2.659208    0.313108
      6         50           0       -0.329566    1.061248    0.454720
      7         50           0       -0.419896   -1.549858   -0.419211
      8         35           0        1.292040    4.646841    0.041222
      9          1           0        3.377229    3.094843   -0.196213
     10          9           0        2.637280    0.609450    0.013128
 ---------------------------------------------------------------------
                    Distance matrix (angstroms):
                    1          2          3          4          5
     1  C    0.000000
     2  C    1.366274   0.000000
     3  H    3.709129   3.077254   0.000000
     4  H    6.791672   5.480296   4.512729   0.000000
     5  H    5.856696   4.515759   5.235564   2.712309   0.000000
     6  Sn   3.284433   2.185733   1.736764   3.812603   3.861068
     7  Sn   5.281651   3.947037   3.765444   1.738390   1.733748
     8  Br   1.968049   2.944756   3.652535   7.697957   7.335592
     9  H    1.093099   2.165651   4.765571   7.606044   6.369665
    10  F    2.375424   1.454561   4.228182   5.455018   3.814924
                    6          7          8          9         10
     6  Sn   0.000000
     7  Sn   2.754957   0.000000
     8  Br   3.956901   6.445293   0.000000
     9  H    4.277797   6.003427   2.610189   0.000000
    10  F    3.033364   3.767739   4.255700   2.601639   0.000000
 Stoichiometry    C2H4BrFSn2
 Framework group  C1[X(C2H4BrFSn2)]
 Deg. of freedom    24
 Full point group                 C1      NOp   1
 Largest Abelian subgroup         C1      NOp   1
 Largest concise Abelian subgroup C1      NOp   1
                         Standard orientation:                         
 ---------------------------------------------------------------------
 Center     Atomic      Atomic             Coordinates (Angstroms)
 Number     Number       Type             X           Y           Z
 ---------------------------------------------------------------------
      1          6           0       -2.393443    1.277389    0.010800
      2          6           0       -1.053365    1.072318    0.180624
      3          1           0       -0.441038   -1.737400   -0.914836
      4          1           0        3.961717   -1.113021   -0.146318
      5          1           0        3.414494    1.385133    0.757226
      6         50           0        0.200492   -0.711664    0.331220
      7         50           0        2.756817    0.135842   -0.249061
      8         35           0       -3.680200   -0.190542   -0.239504
      9          1           0       -2.848187    2.271390    0.004894
     10          9           0       -0.273847    2.283976    0.380579
 ---------------------------------------------------------------------
 Rotational constants (GHZ):      2.1272466      0.2386496      0.2200185
 Standard basis: LANL2DZ (5D, 7F)
 There are    59 symmetry adapted basis functions of A   symmetry.
 Integral buffers will be    131072 words long.
 Raffenetti 1 integral format.
 Two-electron integral symmetry is turned on.
    59 basis functions,   127 primitive gaussians,    59 cartesian basis functions
    20 alpha electrons       20 beta electrons
       nuclear repulsion energy       131.9416171951 Hartrees.
 NAtoms=   10 NActive=   10 NUniq=   10 SFac= 7.50D-01 NAtFMM=   80 NAOKFM=F Big=F
 One-electron integrals computed using PRISM.
   1 Symmetry operations used in ECPInt.
 ECPInt:  NShTT=     630 NPrTT=    3262 LenC2=     625 LenP2D=    2701.
 LDataN:  DoStor=T MaxTD1= 4 Len=   56
 NBasis=    59 RedAO= T  NBF=    59
 NBsUse=    59 1.00D-06 NBFU=    59
 Initial guess read from the read-write file.
 B after Tr=     0.000000    0.000000    0.000000
         Rot=    1.000000    0.000000    0.000000    0.000000 Ang=   0.00 deg.
 Initial guess orbital symmetries:
       Occupied  (A) (A) (A) (A) (A) (A) (A) (A) (A) (A) (A) (A)
                 (A) (A) (A) (A) (A) (A) (A) (A)
       Virtual   (A) (A) (A) (A) (A) (A) (A) (A) (A) (A) (A) (A)
                 (A) (A) (A) (A) (A) (A) (A) (A) (A) (A) (A) (A)
                 (A) (A) (A) (A) (A) (A) (A) (A) (A) (A) (A) (A)
                 (A) (A) (A)
 Harris functional with IExCor=  205 diagonalized for initial guess.
 ExpMin= 6.30D-02 ExpMax= 1.00D+04 ExpMxC= 3.50D+02 IAcc=2 IRadAn=         0 AccDes= 0.00D+00
 HarFok:  IExCor=  205 AccDes= 0.00D+00 IRadAn=         0 IDoV= 1
 ScaDFX=  1.000000  1.000000  1.000000  1.000000
 Defaulting to unpruned grid for atomic number  50.
 Defaulting to unpruned grid for atomic number  50.
 Defaulting to unpruned grid for atomic number  50.
 Defaulting to unpruned grid for atomic number  50.
 Defaulting to unpruned grid for atomic number  50.
 Defaulting to unpruned grid for atomic number  50.
 Defaulting to unpruned grid for atomic number  50.
 Defaulting to unpruned grid for atomic number  50.
 Defaulting to unpruned grid for atomic number  50.
 Defaulting to unpruned grid for atomic number  50.
 Defaulting to unpruned grid for atomic number  50.
 Defaulting to unpruned grid for atomic number  50.
 Defaulting to unpruned grid for atomic number  50.
 Defaulting to unpruned grid for atomic number  50.
 Defaulting to unpruned grid for atomic number  50.
 Defaulting to unpruned grid for atomic number  50.
 Defaulting to unpruned grid for atomic number  50.
 Defaulting to unpruned grid for atomic number  50.
 Defaulting to unpruned grid for atomic number  50.
 Defaulting to unpruned grid for atomic number  50.
 FoFCou: FMM=F IPFlag=           0 FMFlag=      100000 FMFlg1=           0
         NFxFlg=           0 DoJE=T BraDBF=F KetDBF=T FulRan=T
         Omega=  0.000000  0.000000  1.000000  0.000000  0.000000 ICntrl=     500 IOpCl=  0
         NMat0=    1 NMatS0=    1 NMatT0=    0 NMatD0=    1 NMtDS0=    0 NMtDT0=    0
         I1Cent=           4 NGrid=           0.
 Petite list used in FoFCou.
 Requested convergence on RMS density matrix=1.00D-08 within 128 cycles.
 Requested convergence on MAX density matrix=1.00D-06.
 Requested convergence on             energy=1.00D-06.
 No special actions if energy rises.
 Keep R1 ints in memory in canonical form, NReq=2397586.
 SCF Done:  E(RHF) =  -196.780583655     A.U. after   13 cycles
             Convg  =    0.4310D-08             -V/T =  2.0726
 ExpMin= 6.30D-02 ExpMax= 1.00D+04 ExpMxC= 3.50D+02 IAcc=3 IRadAn=         5 AccDes= 0.00D+00
 HarFok:  IExCor=  205 AccDes= 0.00D+00 IRadAn=         5 IDoV=-2
 ScaDFX=  1.000000  1.000000  1.000000  1.000000
 Defaulting to unpruned grid for atomic number  50.
 Defaulting to unpruned grid for atomic number  50.
 Defaulting to unpruned grid for atomic number  50.
 Defaulting to unpruned grid for atomic number  50.
 Defaulting to unpruned grid for atomic number  50.
 Defaulting to unpruned grid for atomic number  50.
 Defaulting to unpruned grid for atomic number  50.
 Defaulting to unpruned grid for atomic number  50.
 Defaulting to unpruned grid for atomic number  50.
 Defaulting to unpruned grid for atomic number  50.
 Defaulting to unpruned grid for atomic number  50.
 Defaulting to unpruned grid for atomic number  50.
 Defaulting to unpruned grid for atomic number  50.
 Defaulting to unpruned grid for atomic number  50.
 Defaulting to unpruned grid for atomic number  50.
 Defaulting to unpruned grid for atomic number  50.
 Defaulting to unpruned grid for atomic number  50.
 Defaulting to unpruned grid for atomic number  50.
 Defaulting to unpruned grid for atomic number  50.
 Defaulting to unpruned grid for atomic number  50.
 Range of M.O.s used for correlation:     4    59
 NBasis=    59 NAE=    20 NBE=    20 NFC=     3 NFV=     0
 NROrb=     56 NOA=    17 NOB=    17 NVA=    39 NVB=    39
 Fully direct method using O(ONN) memory.
 JobTyp=1 Pass  1:  I=   4 to  20 NPSUse= 20 ParTrn=T ParDer=T DoDerP=T.
 Spin components of T(2) and E(2):
     alpha-alpha T2 =       0.2163395712D-01 E2=     -0.4647554624D-01
     alpha-beta  T2 =       0.1671375576D+00 E2=     -0.3207830898D+00
     beta-beta   T2 =       0.2163395712D-01 E2=     -0.4647554624D-01
 ANorm=    0.1100184290D+01
 E2 =    -0.4137341823D+00 EUMP2 =    -0.19719431783696D+03
          IDoAtm=1111111111
          Differentiating once with respect to electric field.
                with respect to dipole field.
          Differentiating once with respect to nuclear coordinates.
          Keep R1 ints in memory in canonical form, NReq=2368185.
          There are     1 degrees of freedom in the 1st order CPHF.  IDoFFX=0.
 LinEq1:  Iter=  0 NonCon=     1 RMS=9.79D-03 Max=9.12D-02
 AX will form     1 AO Fock derivatives at one time.
 LinEq1:  Iter=  1 NonCon=     1 RMS=3.95D-03 Max=3.31D-02
 LinEq1:  Iter=  2 NonCon=     1 RMS=1.30D-03 Max=1.35D-02
 LinEq1:  Iter=  3 NonCon=     1 RMS=3.01D-04 Max=3.10D-03
 LinEq1:  Iter=  4 NonCon=     1 RMS=1.00D-04 Max=8.93D-04
 LinEq1:  Iter=  5 NonCon=     1 RMS=2.77D-05 Max=2.14D-04
 LinEq1:  Iter=  6 NonCon=     1 RMS=1.00D-05 Max=1.72D-04
 LinEq1:  Iter=  7 NonCon=     1 RMS=3.89D-06 Max=2.98D-05
 LinEq1:  Iter=  8 NonCon=     1 RMS=1.32D-06 Max=1.02D-05
 LinEq1:  Iter=  9 NonCon=     1 RMS=4.56D-07 Max=5.90D-06
 LinEq1:  Iter= 10 NonCon=     1 RMS=9.90D-08 Max=7.58D-07
 LinEq1:  Iter= 11 NonCon=     1 RMS=1.98D-08 Max=1.55D-07
 LinEq1:  Iter= 12 NonCon=     1 RMS=3.18D-09 Max=2.12D-08
 LinEq1:  Iter= 13 NonCon=     1 RMS=5.51D-10 Max=3.36D-09
 LinEq1:  Iter= 14 NonCon=     0 RMS=6.66D-11 Max=3.50D-10
 Linear equations converged to 1.000D-10 1.000D-09 after    14 iterations.
 End of Minotr Frequency-dependent properties file   721 does not exist.
 End of Minotr Frequency-dependent properties file   722 does not exist.
   1 Symmetry operations used in ECPInt.
 ECPInt:  NShTT=     630 NPrTT=    3262 LenC2=     625 LenP2D=    2701.
 LDataN:  DoStor=T MaxTD1= 5 Len=  102
 Calling FoFJK, ICntrl=      2127 FMM=F ISym2X=0 I1Cent= 0 IOpClX= 0 NMat=1 NMatS=1 NMatT=0.
 ***** Axes restored to original set *****
 -------------------------------------------------------------------
 Center     Atomic                   Forces (Hartrees/Bohr)
 Number     Number              X              Y              Z
 -------------------------------------------------------------------
      1        6           0.001069009    0.000077703   -0.000059290
      2        6          -0.008942958    0.005988467    0.001379744
      3        1           0.000026244    0.000186403    0.001146438
      4        1          -0.000071433    0.000983132   -0.000275031
      5        1           0.000272504    0.001092173   -0.000055375
      6       50           0.001410376   -0.001143893   -0.002736788
      7       50          -0.000332203   -0.000740021    0.001115239
      8       35           0.000584774   -0.002844972    0.000029866
      9        1           0.000315536   -0.000330968   -0.000160760
     10        9           0.005668150   -0.003268024   -0.000384043
 -------------------------------------------------------------------
 Cartesian Forces:  Max     0.008942958 RMS     0.002495850

 GradGradGradGradGradGradGradGradGradGradGradGradGradGradGradGradGradGrad
 Berny optimization.
 Using GEDIIS/GDIIS optimizer.
 Internal  Forces:  Max     0.006132758 RMS     0.001738921
 Search for a local minimum.
 Step number   2 out of a maximum of   43
 All quantities printed in internal units (Hartrees-Bohrs-Radians)
 Mixed Optimization -- RFO/linear search
 Update second derivatives using D2CorX and points    1    2
 DE= -4.68D-03 DEPred=-4.81D-03 R= 9.73D-01
 SS=  1.41D+00  RLast= 1.87D-01 DXNew= 5.0454D-01 5.6106D-01
 Trust test= 9.73D-01 RLast= 1.87D-01 DXMaxT set to 5.05D-01
 Use linear search instead of GDIIS.
     Eigenvalues ---    0.00230   0.00230   0.01703   0.03082   0.03082
     Eigenvalues ---    0.03923   0.04345   0.06797   0.10840   0.11714
     Eigenvalues ---    0.12221   0.12320   0.12479   0.15667   0.16000
     Eigenvalues ---    0.16005   0.17118   0.22219   0.23753   0.24876
     Eigenvalues ---    0.25406   0.37201   0.40013   0.642811000.00000
     Eigenvalues --- 1000.000001000.000001000.000001000.000001000.00000
     Eigenvalues --- 1000.000001000.000001000.00000
 RFO step:  Lambda=-5.47800739D-04 EMin= 2.29886469D-03
 Quartic linear search produced a step of  0.04100.
 Iteration  1 RMS(Cart)=  0.03388304 RMS(Int)=  0.00054837
 Iteration  2 RMS(Cart)=  0.00055523 RMS(Int)=  0.00009507
 Iteration  3 RMS(Cart)=  0.00000006 RMS(Int)=  0.00009507
 Variable       Old X    -DE/DX   Delta X   Delta X   Delta X     New X
                                 (Linear)    (Quad)   (Total)
    R1        2.58188  -0.00192   0.00321  -0.00224   0.00096   2.58284
    R2        3.71907  -0.00274   0.00228  -0.01633  -0.01405   3.70502
    R3        2.06566   0.00029   0.00179   0.00142   0.00321   2.06887
    R4        4.13044  -0.00148   0.00071  -0.01281  -0.01210   4.11834
    R5        2.74872   0.00613   0.00311   0.01576   0.01887   2.76759
    R6        3.28201  -0.00057   0.00134  -0.00422  -0.00288   3.27913
    R7        3.28508  -0.00042   0.00120  -0.00304  -0.00184   3.28324
    R8        3.27631  -0.00055   0.00123  -0.00408  -0.00285   3.27346
    R9        5.20611  -0.00151  -0.00383  -0.02450  -0.02834   5.17778
    A1        2.14736  -0.00216   0.00059  -0.00998  -0.00939   2.13797
    A2        2.14742   0.00070  -0.00078   0.00236   0.00158   2.14900
    A3        1.98840   0.00146   0.00019   0.00763   0.00782   1.99622
    A4        2.33745   0.00139  -0.00060   0.00549   0.00489   2.34234
    A5        2.00170  -0.00386   0.00051  -0.01592  -0.01542   1.98629
    A6        1.94228   0.00247   0.00010   0.01024   0.01034   1.95262
    A7        1.79334  -0.00013   0.00134   0.01188   0.01288   1.80623
    A8        1.84076   0.00157   0.00020   0.01141   0.01141   1.85217
    A9        1.95338   0.00092   0.00038   0.02006   0.02017   1.97354
   A10        1.79305   0.00190   0.00068   0.01384   0.01449   1.80755
   A11        1.99291  -0.00126  -0.00058  -0.00764  -0.00824   1.98467
   A12        2.03913  -0.00175  -0.00080  -0.01093  -0.01174   2.02740
    D1       -0.04725   0.00005   0.00032  -0.00062  -0.00029  -0.04753
    D2       -3.11805   0.00002  -0.00002   0.00314   0.00311  -3.11494
    D3        3.09080   0.00012   0.00056   0.00203   0.00259   3.09339
    D4        0.01999   0.00010   0.00022   0.00578   0.00599   0.02598
    D5        0.74591  -0.00081  -0.00077  -0.05164  -0.05247   0.69344
    D6        2.79443   0.00077   0.00027  -0.01972  -0.01937   2.77506
    D7       -2.46470  -0.00098  -0.00043  -0.05608  -0.05659  -2.52129
    D8       -0.41618   0.00061   0.00061  -0.02416  -0.02349  -0.43967
    D9        3.11096  -0.00038  -0.00071   0.02504   0.02423   3.13519
   D10        1.01888  -0.00053  -0.00050   0.02118   0.02056   1.03944
   D11       -1.23507   0.00073   0.00112   0.05409   0.05533  -1.17974
   D12        2.95603   0.00058   0.00132   0.05023   0.05166   3.00769
         Item               Value     Threshold  Converged?
 Maximum Force            0.006133     0.000450     NO 
 RMS     Force            0.001739     0.000300     NO 
 Maximum Displacement     0.099629     0.001800     NO 
 RMS     Displacement     0.033900     0.001200     NO 
 Predicted change in Energy=-2.804204D-04
 GradGradGradGradGradGradGradGradGradGradGradGradGradGradGradGradGradGrad

                          Input orientation:                          
 ---------------------------------------------------------------------
 Center     Atomic      Atomic             Coordinates (Angstroms)
 Number     Number       Type             X           Y           Z
 ---------------------------------------------------------------------
      1          6           0        2.301410    2.959310   -0.054167
      2          6           0        1.720042    1.729327    0.077162
      3          1           0       -1.286365    2.120248   -0.500294
      4          1           0       -1.965829   -2.302736   -0.212064
      5          1           0        0.682058   -2.657364    0.330156
      6         50           0       -0.314174    1.042145    0.450284
      7         50           0       -0.414325   -1.551239   -0.428188
      8         35           0        1.268456    4.624610    0.007386
      9          1           0        3.377113    3.100029   -0.201297
     10          9           0        2.672875    0.617828    0.037486
 ---------------------------------------------------------------------
                    Distance matrix (angstroms):
                    1          2          3          4          5
     1  C    0.000000
     2  C    1.366782   0.000000
     3  H    3.711493   3.086221   0.000000
     4  H    6.776680   5.470542   4.484143   0.000000
     5  H    5.858074   4.514917   5.233538   2.725999   0.000000
     6  Sn   3.281962   2.179329   1.735241   3.788786   3.833182
     7  Sn   5.278272   3.946266   3.774317   1.737418   1.732239
     8  Br   1.960614   2.931119   3.613403   7.648325   7.312673
     9  H    1.094800   2.168467   4.774662   7.598488   6.379133
    10  F    2.372535   1.464546   4.268730   5.487217   3.843942
                    6          7          8          9         10
     6  Sn   0.000000
     7  Sn   2.739961   0.000000
     8  Br   3.941438   6.415808   0.000000
     9  H    4.276102   6.005063   2.610428   0.000000
    10  F    3.045146   3.801646   4.245892   2.591195   0.000000
 Stoichiometry    C2H4BrFSn2
 Framework group  C1[X(C2H4BrFSn2)]
 Deg. of freedom    24
 Full point group                 C1      NOp   1
 Largest Abelian subgroup         C1      NOp   1
 Largest concise Abelian subgroup C1      NOp   1
                         Standard orientation:                         
 ---------------------------------------------------------------------
 Center     Atomic      Atomic             Coordinates (Angstroms)
 Number     Number       Type             X           Y           Z
 ---------------------------------------------------------------------
      1          6           0       -2.399267    1.273300    0.002617
      2          6           0       -1.059223    1.073219    0.182456
      3          1           0       -0.460008   -1.779118   -0.832371
      4          1           0        3.929942   -1.141707   -0.176945
      5          1           0        3.410022    1.368179    0.751077
      6         50           0        0.204439   -0.694608    0.348056
      7         50           0        2.746496    0.127642   -0.259593
      8         35           0       -3.660610   -0.206270   -0.250155
      9          1           0       -2.859223    2.266682   -0.012204
     10          9           0       -0.299463    2.308290    0.388030
 ---------------------------------------------------------------------
 Rotational constants (GHZ):      2.1100063      0.2403449      0.2217299
 Standard basis: LANL2DZ (5D, 7F)
 There are    59 symmetry adapted basis functions of A   symmetry.
 Integral buffers will be    131072 words long.
 Raffenetti 1 integral format.
 Two-electron integral symmetry is turned on.
    59 basis functions,   127 primitive gaussians,    59 cartesian basis functions
    20 alpha electrons       20 beta electrons
       nuclear repulsion energy       131.9064180918 Hartrees.
 NAtoms=   10 NActive=   10 NUniq=   10 SFac= 7.50D-01 NAtFMM=   80 NAOKFM=F Big=F
 One-electron integrals computed using PRISM.
   1 Symmetry operations used in ECPInt.
 ECPInt:  NShTT=     630 NPrTT=    3262 LenC2=     625 LenP2D=    2700.
 LDataN:  DoStor=T MaxTD1= 4 Len=   56
 NBasis=    59 RedAO= T  NBF=    59
 NBsUse=    59 1.00D-06 NBFU=    59
 Initial guess read from the read-write file.
 B after Tr=     0.000000    0.000000    0.000000
         Rot=    1.000000    0.000000    0.000000    0.000000 Ang=   0.00 deg.
 Initial guess orbital symmetries:
       Occupied  (A) (A) (A) (A) (A) (A) (A) (A) (A) (A) (A) (A)
                 (A) (A) (A) (A) (A) (A) (A) (A)
       Virtual   (A) (A) (A) (A) (A) (A) (A) (A) (A) (A) (A) (A)
                 (A) (A) (A) (A) (A) (A) (A) (A) (A) (A) (A) (A)
                 (A) (A) (A) (A) (A) (A) (A) (A) (A) (A) (A) (A)
                 (A) (A) (A)
 Harris functional with IExCor=  205 diagonalized for initial guess.
 ExpMin= 6.30D-02 ExpMax= 1.00D+04 ExpMxC= 3.50D+02 IAcc=2 IRadAn=         0 AccDes= 0.00D+00
 HarFok:  IExCor=  205 AccDes= 0.00D+00 IRadAn=         0 IDoV= 1
 ScaDFX=  1.000000  1.000000  1.000000  1.000000
 Defaulting to unpruned grid for atomic number  50.
 Defaulting to unpruned grid for atomic number  50.
 Defaulting to unpruned grid for atomic number  50.
 Defaulting to unpruned grid for atomic number  50.
 Defaulting to unpruned grid for atomic number  50.
 Defaulting to unpruned grid for atomic number  50.
 Defaulting to unpruned grid for atomic number  50.
 Defaulting to unpruned grid for atomic number  50.
 Defaulting to unpruned grid for atomic number  50.
 Defaulting to unpruned grid for atomic number  50.
 Defaulting to unpruned grid for atomic number  50.
 Defaulting to unpruned grid for atomic number  50.
 Defaulting to unpruned grid for atomic number  50.
 Defaulting to unpruned grid for atomic number  50.
 Defaulting to unpruned grid for atomic number  50.
 Defaulting to unpruned grid for atomic number  50.
 Defaulting to unpruned grid for atomic number  50.
 Defaulting to unpruned grid for atomic number  50.
 Defaulting to unpruned grid for atomic number  50.
 Defaulting to unpruned grid for atomic number  50.
 FoFCou: FMM=F IPFlag=           0 FMFlag=      100000 FMFlg1=           0
         NFxFlg=           0 DoJE=T BraDBF=F KetDBF=T FulRan=T
         Omega=  0.000000  0.000000  1.000000  0.000000  0.000000 ICntrl=     500 IOpCl=  0
         NMat0=    1 NMatS0=    1 NMatT0=    0 NMatD0=    1 NMtDS0=    0 NMtDT0=    0
         I1Cent=           4 NGrid=           0.
 Petite list used in FoFCou.
 Requested convergence on RMS density matrix=1.00D-08 within 128 cycles.
 Requested convergence on MAX density matrix=1.00D-06.
 Requested convergence on             energy=1.00D-06.
 No special actions if energy rises.
 Keep R1 ints in memory in canonical form, NReq=2397586.
 SCF Done:  E(RHF) =  -196.780092253     A.U. after   13 cycles
             Convg  =    0.4421D-08             -V/T =  2.0726
 ExpMin= 6.30D-02 ExpMax= 1.00D+04 ExpMxC= 3.50D+02 IAcc=3 IRadAn=         5 AccDes= 0.00D+00
 HarFok:  IExCor=  205 AccDes= 0.00D+00 IRadAn=         5 IDoV=-2
 ScaDFX=  1.000000  1.000000  1.000000  1.000000
 Defaulting to unpruned grid for atomic number  50.
 Defaulting to unpruned grid for atomic number  50.
 Defaulting to unpruned grid for atomic number  50.
 Defaulting to unpruned grid for atomic number  50.
 Defaulting to unpruned grid for atomic number  50.
 Defaulting to unpruned grid for atomic number  50.
 Defaulting to unpruned grid for atomic number  50.
 Defaulting to unpruned grid for atomic number  50.
 Defaulting to unpruned grid for atomic number  50.
 Defaulting to unpruned grid for atomic number  50.
 Defaulting to unpruned grid for atomic number  50.
 Defaulting to unpruned grid for atomic number  50.
 Defaulting to unpruned grid for atomic number  50.
 Defaulting to unpruned grid for atomic number  50.
 Defaulting to unpruned grid for atomic number  50.
 Defaulting to unpruned grid for atomic number  50.
 Defaulting to unpruned grid for atomic number  50.
 Defaulting to unpruned grid for atomic number  50.
 Defaulting to unpruned grid for atomic number  50.
 Defaulting to unpruned grid for atomic number  50.
 Range of M.O.s used for correlation:     4    59
 NBasis=    59 NAE=    20 NBE=    20 NFC=     3 NFV=     0
 NROrb=     56 NOA=    17 NOB=    17 NVA=    39 NVB=    39
 Fully direct method using O(ONN) memory.
 JobTyp=1 Pass  1:  I=   4 to  20 NPSUse= 20 ParTrn=T ParDer=T DoDerP=T.
 Spin components of T(2) and E(2):
     alpha-alpha T2 =       0.2171914949D-01 E2=     -0.4660010626D-01
     alpha-beta  T2 =       0.1677531869D+00 E2=     -0.3213799361D+00
     beta-beta   T2 =       0.2171914949D-01 E2=     -0.4660010626D-01
 ANorm=    0.1100541451D+01
 E2 =    -0.4145801486D+00 EUMP2 =    -0.19719467240186D+03
          IDoAtm=1111111111
          Differentiating once with respect to electric field.
                with respect to dipole field.
          Differentiating once with respect to nuclear coordinates.
          Keep R1 ints in memory in canonical form, NReq=2368185.
          There are     1 degrees of freedom in the 1st order CPHF.  IDoFFX=0.
 LinEq1:  Iter=  0 NonCon=     1 RMS=9.75D-03 Max=9.01D-02
 AX will form     1 AO Fock derivatives at one time.
 LinEq1:  Iter=  1 NonCon=     1 RMS=3.95D-03 Max=3.35D-02
 LinEq1:  Iter=  2 NonCon=     1 RMS=1.30D-03 Max=1.38D-02
 LinEq1:  Iter=  3 NonCon=     1 RMS=2.98D-04 Max=2.91D-03
 LinEq1:  Iter=  4 NonCon=     1 RMS=9.93D-05 Max=8.99D-04
 LinEq1:  Iter=  5 NonCon=     1 RMS=2.56D-05 Max=1.84D-04
 LinEq1:  Iter=  6 NonCon=     1 RMS=8.58D-06 Max=1.55D-04
 LinEq1:  Iter=  7 NonCon=     1 RMS=2.92D-06 Max=2.64D-05
 LinEq1:  Iter=  8 NonCon=     1 RMS=1.11D-06 Max=8.01D-06
 LinEq1:  Iter=  9 NonCon=     1 RMS=4.32D-07 Max=5.42D-06
 LinEq1:  Iter= 10 NonCon=     1 RMS=9.77D-08 Max=7.42D-07
 LinEq1:  Iter= 11 NonCon=     1 RMS=2.00D-08 Max=1.59D-07
 LinEq1:  Iter= 12 NonCon=     1 RMS=3.22D-09 Max=2.12D-08
 LinEq1:  Iter= 13 NonCon=     1 RMS=5.49D-10 Max=3.51D-09
 LinEq1:  Iter= 14 NonCon=     0 RMS=6.72D-11 Max=3.77D-10
 Linear equations converged to 1.000D-10 1.000D-09 after    14 iterations.
 End of Minotr Frequency-dependent properties file   721 does not exist.
 End of Minotr Frequency-dependent properties file   722 does not exist.
   1 Symmetry operations used in ECPInt.
 ECPInt:  NShTT=     630 NPrTT=    3262 LenC2=     625 LenP2D=    2700.
 LDataN:  DoStor=T MaxTD1= 5 Len=  102
 Calling FoFJK, ICntrl=      2127 FMM=F ISym2X=0 I1Cent= 0 IOpClX= 0 NMat=1 NMatS=1 NMatT=0.
 ***** Axes restored to original set *****
 -------------------------------------------------------------------
 Center     Atomic                   Forces (Hartrees/Bohr)
 Number     Number              X              Y              Z
 -------------------------------------------------------------------
      1        6           0.001199469   -0.001103359   -0.000225998
      2        6          -0.002477692    0.003111133    0.000901258
      3        1           0.000485420    0.000055957    0.000673101
      4        1           0.000100343    0.000670454    0.000061186
      5        1           0.000157320    0.000782611   -0.000167667
      6       50           0.000724087   -0.000684679   -0.001608794
      7       50          -0.000454950   -0.001437088    0.000393463
      8       35          -0.000053922    0.000046292    0.000011199
      9        1          -0.001011200   -0.000609175    0.000170723
     10        9           0.001331126   -0.000832146   -0.000208471
 -------------------------------------------------------------------
 Cartesian Forces:  Max     0.003111133 RMS     0.001018204

 GradGradGradGradGradGradGradGradGradGradGradGradGradGradGradGradGradGrad
 Berny optimization.
 Using GEDIIS/GDIIS optimizer.
 Internal  Forces:  Max     0.001960992 RMS     0.000830099
 Search for a local minimum.
 Step number   3 out of a maximum of   43
 All quantities printed in internal units (Hartrees-Bohrs-Radians)
 Mixed Optimization -- En-DIIS/RFO-DIIS
 Update second derivatives using D2CorX and points    1    2    3
 DE= -3.55D-04 DEPred=-2.80D-04 R= 1.26D+00
 SS=  1.41D+00  RLast= 1.30D-01 DXNew= 8.4853D-01 3.8940D-01
 Trust test= 1.26D+00 RLast= 1.30D-01 DXMaxT set to 5.05D-01
 Use linear search instead of GDIIS.
     Eigenvalues ---    0.00227   0.00284   0.01694   0.02899   0.03082
     Eigenvalues ---    0.03102   0.04025   0.06689   0.10676   0.11396
     Eigenvalues ---    0.12221   0.12319   0.12406   0.13859   0.16002
     Eigenvalues ---    0.16014   0.17422   0.22151   0.22891   0.24510
     Eigenvalues ---    0.26904   0.37798   0.40421   0.646371000.00000
     Eigenvalues --- 1000.000001000.000001000.000001000.000001000.00000
     Eigenvalues --- 1000.000001000.000001000.00000
 RFO step:  Lambda=-2.80741229D-04 EMin= 2.26672980D-03
 Quartic linear search produced a step of  0.37787.
 Iteration  1 RMS(Cart)=  0.06108937 RMS(Int)=  0.00214166
 Iteration  2 RMS(Cart)=  0.00242973 RMS(Int)=  0.00022378
 Iteration  3 RMS(Cart)=  0.00000228 RMS(Int)=  0.00022377
 Iteration  4 RMS(Cart)=  0.00000000 RMS(Int)=  0.00022377
 Variable       Old X    -DE/DX   Delta X   Delta X   Delta X     New X
                                 (Linear)    (Quad)   (Total)
    R1        2.58284  -0.00144   0.00036   0.00033   0.00069   2.58354
    R2        3.70502   0.00007  -0.00531   0.00138  -0.00393   3.70109
    R3        2.06887  -0.00109   0.00121  -0.00168  -0.00047   2.06840
    R4        4.11834  -0.00086  -0.00457  -0.01082  -0.01539   4.10294
    R5        2.76759   0.00150   0.00713   0.01052   0.01765   2.78524
    R6        3.27913  -0.00061  -0.00109  -0.00559  -0.00668   3.27245
    R7        3.28324  -0.00037  -0.00069  -0.00304  -0.00373   3.27951
    R8        3.27346  -0.00047  -0.00108  -0.00421  -0.00529   3.26817
    R9        5.17778  -0.00010  -0.01071  -0.01002  -0.02072   5.15705
    A1        2.13797   0.00027  -0.00355   0.00117  -0.00238   2.13559
    A2        2.14900  -0.00063   0.00060  -0.00572  -0.00512   2.14388
    A3        1.99622   0.00035   0.00295   0.00455   0.00750   2.00372
    A4        2.34234   0.00161   0.00185   0.00896   0.01080   2.35314
    A5        1.98629  -0.00148  -0.00583  -0.00933  -0.01517   1.97112
    A6        1.95262  -0.00013   0.00391   0.00085   0.00475   1.95737
    A7        1.80623  -0.00070   0.00487   0.00685   0.01089   1.81712
    A8        1.85217   0.00196   0.00431   0.01661   0.02044   1.87261
    A9        1.97354   0.00056   0.00762   0.02055   0.02760   2.00115
   A10        1.80755   0.00120   0.00548   0.01159   0.01695   1.82449
   A11        1.98467  -0.00110  -0.00311  -0.01189  -0.01507   1.96960
   A12        2.02740  -0.00107  -0.00444  -0.01227  -0.01677   2.01063
    D1       -0.04753   0.00007  -0.00011   0.00525   0.00513  -0.04241
    D2       -3.11494  -0.00006   0.00118  -0.00367  -0.00248  -3.11742
    D3        3.09339   0.00006   0.00098   0.00507   0.00604   3.09943
    D4        0.02598  -0.00007   0.00226  -0.00385  -0.00157   0.02441
    D5        0.69344  -0.00059  -0.01983  -0.00128  -0.02123   0.67221
    D6        2.77506   0.00058  -0.00732   0.03237   0.02514   2.80021
    D7       -2.52129  -0.00050  -0.02138   0.00719  -0.01429  -2.53558
    D8       -0.43967   0.00066  -0.00888   0.04084   0.03208  -0.40759
    D9        3.13519  -0.00054   0.00916  -0.11397  -0.10506   3.03014
   D10        1.03944  -0.00042   0.00777  -0.11032  -0.10289   0.93655
   D11       -1.17974   0.00005   0.02091  -0.08599  -0.06475  -1.24449
   D12        3.00769   0.00016   0.01952  -0.08234  -0.06257   2.94511
         Item               Value     Threshold  Converged?
 Maximum Force            0.001961     0.000450     NO 
 RMS     Force            0.000830     0.000300     NO 
 Maximum Displacement     0.219940     0.001800     NO 
 RMS     Displacement     0.060999     0.001200     NO 
 Predicted change in Energy=-1.768241D-04
 GradGradGradGradGradGradGradGradGradGradGradGradGradGradGradGradGradGrad

                          Input orientation:                          
 ---------------------------------------------------------------------
 Center     Atomic      Atomic             Coordinates (Angstroms)
 Number     Number       Type             X           Y           Z
 ---------------------------------------------------------------------
      1          6           0        2.302008    2.952411   -0.033653
      2          6           0        1.705068    1.727058    0.072501
      3          1           0       -1.294412    2.134727   -0.546665
      4          1           0       -1.966609   -2.313202   -0.095677
      5          1           0        0.733246   -2.610881    0.266919
      6         50           0       -0.330143    1.037820    0.383808
      7         50           0       -0.442289   -1.560221   -0.443850
      8         35           0        1.282282    4.623606    0.022164
      9          1           0        3.382444    3.077617   -0.156233
     10          9           0        2.669667    0.613221    0.037150
 ---------------------------------------------------------------------
                    Distance matrix (angstroms):
                    1          2          3          4          5
     1  C    0.000000
     2  C    1.367149   0.000000
     3  H    3.723712   3.089732   0.000000
     4  H    6.778763   5.461978   4.520986   0.000000
     5  H    5.788055   4.449714   5.224377   2.740311   0.000000
     6  Sn   3.281486   2.171185   1.731705   3.759957   3.802299
     7  Sn   5.297478   3.960298   3.793326   1.735442   1.729440
     8  Br   1.958533   2.927673   3.627318   7.660841   7.259418
     9  H    1.094552   2.165622   4.786905   7.594535   6.289381
    10  F    2.368965   1.473884   4.285994   5.484219   3.767938
                    6          7          8          9         10
     6  Sn   0.000000
     7  Sn   2.728994   0.000000
     8  Br   3.948235   6.436694   0.000000
     9  H    4.270330   6.018375   2.613922   0.000000
    10  F    3.049478   3.826158   4.243613   2.572682   0.000000
 Stoichiometry    C2H4BrFSn2
 Framework group  C1[X(C2H4BrFSn2)]
 Deg. of freedom    24
 Full point group                 C1      NOp   1
 Largest Abelian subgroup         C1      NOp   1
 Largest concise Abelian subgroup C1      NOp   1
                         Standard orientation:                         
 ---------------------------------------------------------------------
 Center     Atomic      Atomic             Coordinates (Angstroms)
 Number     Number       Type             X           Y           Z
 ---------------------------------------------------------------------
      1          6           0       -2.410244    1.266051   -0.001122
      2          6           0       -1.068117    1.065183    0.164537
      3          1           0       -0.463427   -1.802099   -0.814995
      4          1           0        3.930185   -1.131943    0.013483
      5          1           0        3.332658    1.453995    0.695535
      6         50           0        0.209910   -0.682925    0.322049
      7         50           0        2.756206    0.120265   -0.242459
      8         35           0       -3.671740   -0.214867   -0.227748
      9          1           0       -2.863652    2.262135   -0.017886
     10          9           0       -0.317837    2.320425    0.348340
 ---------------------------------------------------------------------
 Rotational constants (GHZ):      2.1604071      0.2393296      0.2205090
 Standard basis: LANL2DZ (5D, 7F)
 There are    59 symmetry adapted basis functions of A   symmetry.
 Integral buffers will be    131072 words long.
 Raffenetti 1 integral format.
 Two-electron integral symmetry is turned on.
    59 basis functions,   127 primitive gaussians,    59 cartesian basis functions
    20 alpha electrons       20 beta electrons
       nuclear repulsion energy       131.8405256168 Hartrees.
 NAtoms=   10 NActive=   10 NUniq=   10 SFac= 7.50D-01 NAtFMM=   80 NAOKFM=F Big=F
 One-electron integrals computed using PRISM.
   1 Symmetry operations used in ECPInt.
 ECPInt:  NShTT=     630 NPrTT=    3262 LenC2=     625 LenP2D=    2699.
 LDataN:  DoStor=T MaxTD1= 4 Len=   56
 NBasis=    59 RedAO= T  NBF=    59
 NBsUse=    59 1.00D-06 NBFU=    59
 Initial guess read from the read-write file.
 B after Tr=     0.000000    0.000000    0.000000
         Rot=    1.000000    0.000000    0.000000    0.000000 Ang=   0.00 deg.
 Initial guess orbital symmetries:
       Occupied  (A) (A) (A) (A) (A) (A) (A) (A) (A) (A) (A) (A)
                 (A) (A) (A) (A) (A) (A) (A) (A)
       Virtual   (A) (A) (A) (A) (A) (A) (A) (A) (A) (A) (A) (A)
                 (A) (A) (A) (A) (A) (A) (A) (A) (A) (A) (A) (A)
                 (A) (A) (A) (A) (A) (A) (A) (A) (A) (A) (A) (A)
                 (A) (A) (A)
 Harris functional with IExCor=  205 diagonalized for initial guess.
 ExpMin= 6.30D-02 ExpMax= 1.00D+04 ExpMxC= 3.50D+02 IAcc=2 IRadAn=         0 AccDes= 0.00D+00
 HarFok:  IExCor=  205 AccDes= 0.00D+00 IRadAn=         0 IDoV= 1
 ScaDFX=  1.000000  1.000000  1.000000  1.000000
 Defaulting to unpruned grid for atomic number  50.
 Defaulting to unpruned grid for atomic number  50.
 Defaulting to unpruned grid for atomic number  50.
 Defaulting to unpruned grid for atomic number  50.
 Defaulting to unpruned grid for atomic number  50.
 Defaulting to unpruned grid for atomic number  50.
 Defaulting to unpruned grid for atomic number  50.
 Defaulting to unpruned grid for atomic number  50.
 Defaulting to unpruned grid for atomic number  50.
 Defaulting to unpruned grid for atomic number  50.
 Defaulting to unpruned grid for atomic number  50.
 Defaulting to unpruned grid for atomic number  50.
 Defaulting to unpruned grid for atomic number  50.
 Defaulting to unpruned grid for atomic number  50.
 Defaulting to unpruned grid for atomic number  50.
 Defaulting to unpruned grid for atomic number  50.
 Defaulting to unpruned grid for atomic number  50.
 Defaulting to unpruned grid for atomic number  50.
 Defaulting to unpruned grid for atomic number  50.
 Defaulting to unpruned grid for atomic number  50.
 FoFCou: FMM=F IPFlag=           0 FMFlag=      100000 FMFlg1=           0
         NFxFlg=           0 DoJE=T BraDBF=F KetDBF=T FulRan=T
         Omega=  0.000000  0.000000  1.000000  0.000000  0.000000 ICntrl=     500 IOpCl=  0
         NMat0=    1 NMatS0=    1 NMatT0=    0 NMatD0=    1 NMtDS0=    0 NMtDT0=    0
         I1Cent=           4 NGrid=           0.
 Petite list used in FoFCou.
 Requested convergence on RMS density matrix=1.00D-08 within 128 cycles.
 Requested convergence on MAX density matrix=1.00D-06.
 Requested convergence on             energy=1.00D-06.
 No special actions if energy rises.
 Keep R1 ints in memory in canonical form, NReq=2397586.
 SCF Done:  E(RHF) =  -196.779402603     A.U. after   13 cycles
             Convg  =    0.2587D-08             -V/T =  2.0726
 ExpMin= 6.30D-02 ExpMax= 1.00D+04 ExpMxC= 3.50D+02 IAcc=3 IRadAn=         5 AccDes= 0.00D+00
 HarFok:  IExCor=  205 AccDes= 0.00D+00 IRadAn=         5 IDoV=-2
 ScaDFX=  1.000000  1.000000  1.000000  1.000000
 Defaulting to unpruned grid for atomic number  50.
 Defaulting to unpruned grid for atomic number  50.
 Defaulting to unpruned grid for atomic number  50.
 Defaulting to unpruned grid for atomic number  50.
 Defaulting to unpruned grid for atomic number  50.
 Defaulting to unpruned grid for atomic number  50.
 Defaulting to unpruned grid for atomic number  50.
 Defaulting to unpruned grid for atomic number  50.
 Defaulting to unpruned grid for atomic number  50.
 Defaulting to unpruned grid for atomic number  50.
 Defaulting to unpruned grid for atomic number  50.
 Defaulting to unpruned grid for atomic number  50.
 Defaulting to unpruned grid for atomic number  50.
 Defaulting to unpruned grid for atomic number  50.
 Defaulting to unpruned grid for atomic number  50.
 Defaulting to unpruned grid for atomic number  50.
 Defaulting to unpruned grid for atomic number  50.
 Defaulting to unpruned grid for atomic number  50.
 Defaulting to unpruned grid for atomic number  50.
 Defaulting to unpruned grid for atomic number  50.
 Range of M.O.s used for correlation:     4    59
 NBasis=    59 NAE=    20 NBE=    20 NFC=     3 NFV=     0
 NROrb=     56 NOA=    17 NOB=    17 NVA=    39 NVB=    39
 Fully direct method using O(ONN) memory.
 JobTyp=1 Pass  1:  I=   4 to  20 NPSUse= 20 ParTrn=T ParDer=T DoDerP=T.
 Spin components of T(2) and E(2):
     alpha-alpha T2 =       0.2179290120D-01 E2=     -0.4669970898D-01
     alpha-beta  T2 =       0.1684097395D+00 E2=     -0.3219389469D+00
     beta-beta   T2 =       0.2179290120D-01 E2=     -0.4669970898D-01
 ANorm=    0.1100906691D+01
 E2 =    -0.4153383649D+00 EUMP2 =    -0.19719474096817D+03
          IDoAtm=1111111111
          Differentiating once with respect to electric field.
                with respect to dipole field.
          Differentiating once with respect to nuclear coordinates.
          Keep R1 ints in memory in canonical form, NReq=2368185.
          There are     1 degrees of freedom in the 1st order CPHF.  IDoFFX=0.
 LinEq1:  Iter=  0 NonCon=     1 RMS=9.71D-03 Max=8.97D-02
 AX will form     1 AO Fock derivatives at one time.
 LinEq1:  Iter=  1 NonCon=     1 RMS=3.96D-03 Max=3.40D-02
 LinEq1:  Iter=  2 NonCon=     1 RMS=1.30D-03 Max=1.43D-02
 LinEq1:  Iter=  3 NonCon=     1 RMS=2.92D-04 Max=2.49D-03
 LinEq1:  Iter=  4 NonCon=     1 RMS=9.87D-05 Max=9.17D-04
 LinEq1:  Iter=  5 NonCon=     1 RMS=2.42D-05 Max=1.55D-04
 LinEq1:  Iter=  6 NonCon=     1 RMS=7.55D-06 Max=1.36D-04
 LinEq1:  Iter=  7 NonCon=     1 RMS=1.96D-06 Max=1.71D-05
 LinEq1:  Iter=  8 NonCon=     1 RMS=6.38D-07 Max=8.26D-06
 LinEq1:  Iter=  9 NonCon=     1 RMS=1.79D-07 Max=1.83D-06
 LinEq1:  Iter= 10 NonCon=     1 RMS=7.78D-08 Max=5.28D-07
 LinEq1:  Iter= 11 NonCon=     1 RMS=1.97D-08 Max=1.53D-07
 LinEq1:  Iter= 12 NonCon=     1 RMS=3.20D-09 Max=2.10D-08
 LinEq1:  Iter= 13 NonCon=     1 RMS=5.36D-10 Max=3.70D-09
 LinEq1:  Iter= 14 NonCon=     0 RMS=6.77D-11 Max=3.40D-10
 Linear equations converged to 1.000D-10 1.000D-09 after    14 iterations.
 End of Minotr Frequency-dependent properties file   721 does not exist.
 End of Minotr Frequency-dependent properties file   722 does not exist.
   1 Symmetry operations used in ECPInt.
 ECPInt:  NShTT=     630 NPrTT=    3262 LenC2=     625 LenP2D=    2699.
 LDataN:  DoStor=T MaxTD1= 5 Len=  102
 Calling FoFJK, ICntrl=      2127 FMM=F ISym2X=0 I1Cent= 0 IOpClX= 0 NMat=1 NMatS=1 NMatT=0.
 ***** Axes restored to original set *****
 -------------------------------------------------------------------
 Center     Atomic                   Forces (Hartrees/Bohr)
 Number     Number              X              Y              Z
 -------------------------------------------------------------------
      1        6           0.000070256   -0.001712064   -0.000099691
      2        6           0.003103508    0.001215734   -0.000839638
      3        1           0.000329841    0.000298776    0.000507148
      4        1           0.000099123    0.000305118   -0.000389582
      5        1          -0.000023847    0.000173604    0.000513605
      6       50          -0.000112662   -0.000713010    0.000227650
      7       50          -0.000250894   -0.001309546   -0.000288630
      8       35          -0.000098628    0.000766303   -0.000054274
      9        1          -0.000977260   -0.000097092    0.000318715
     10        9          -0.002139438    0.001072177    0.000104697
 -------------------------------------------------------------------
 Cartesian Forces:  Max     0.003103508 RMS     0.000923814

 GradGradGradGradGradGradGradGradGradGradGradGradGradGradGradGradGradGrad
 Berny optimization.
 Using GEDIIS/GDIIS optimizer.
 Internal  Forces:  Max     0.002212950 RMS     0.000795407
 Search for a local minimum.
 Step number   4 out of a maximum of   43
 All quantities printed in internal units (Hartrees-Bohrs-Radians)
 Mixed Optimization -- En-DIIS/RFO-DIIS
 Swaping is turned off.
 Update second derivatives using D2CorX and points    1    2    3    4
 DE= -6.86D-05 DEPred=-1.77D-04 R= 3.88D-01
 Trust test= 3.88D-01 RLast= 1.89D-01 DXMaxT set to 5.05D-01
     Eigenvalues ---    0.00239   0.00448   0.01688   0.02103   0.03082
     Eigenvalues ---    0.03098   0.04210   0.06620   0.09790   0.11889
     Eigenvalues ---    0.12208   0.12271   0.12378   0.13406   0.16003
     Eigenvalues ---    0.16164   0.17596   0.22072   0.22961   0.24457
     Eigenvalues ---    0.28967   0.37564   0.40664   0.622301000.00000
     Eigenvalues --- 1000.000001000.000001000.000001000.000001000.00000
     Eigenvalues --- 1000.000001000.000001000.00000
 En-DIIS/RFO-DIIS IScMMF=        0 using points:     4    3
 RFO step:  Lambda=-5.13706877D-05.
 DIIS coeffs:      0.62431      0.37569
 Iteration  1 RMS(Cart)=  0.06894582 RMS(Int)=  0.00260724
 Iteration  2 RMS(Cart)=  0.00267943 RMS(Int)=  0.00002177
 Iteration  3 RMS(Cart)=  0.00000325 RMS(Int)=  0.00002170
 Iteration  4 RMS(Cart)=  0.00000000 RMS(Int)=  0.00002170
 Variable       Old X    -DE/DX   Delta X   Delta X   Delta X     New X
                                  (DIIS)     (GDIIS)  (Total)
    R1        2.58354  -0.00139  -0.00026   0.00092   0.00066   2.58420
    R2        3.70109   0.00070   0.00148   0.00090   0.00238   3.70347
    R3        2.06840  -0.00101   0.00018  -0.00130  -0.00112   2.06728
    R4        4.10294   0.00044   0.00578  -0.01113  -0.00535   4.09760
    R5        2.78524  -0.00221  -0.00663   0.01430   0.00767   2.79291
    R6        3.27245  -0.00027   0.00251  -0.00676  -0.00425   3.26820
    R7        3.27951  -0.00030   0.00140  -0.00430  -0.00289   3.27662
    R8        3.26817   0.00009   0.00199  -0.00365  -0.00166   3.26651
    R9        5.15705   0.00085   0.00779  -0.01293  -0.00514   5.15191
    A1        2.13559   0.00078   0.00089   0.00074   0.00164   2.13722
    A2        2.14388  -0.00038   0.00192  -0.00640  -0.00448   2.13940
    A3        2.00372  -0.00040  -0.00282   0.00566   0.00284   2.00656
    A4        2.35314   0.00084  -0.00406   0.01175   0.00770   2.36084
    A5        1.97112   0.00086   0.00570  -0.01118  -0.00548   1.96564
    A6        1.95737  -0.00170  -0.00178  -0.00028  -0.00206   1.95530
    A7        1.81712  -0.00118  -0.00409   0.00547   0.00132   1.81844
    A8        1.87261   0.00081  -0.00768   0.02138   0.01369   1.88629
    A9        2.00115   0.00083  -0.01037   0.03143   0.02108   2.02223
   A10        1.82449   0.00041  -0.00637   0.01628   0.00988   1.83438
   A11        1.96960   0.00003   0.00566  -0.01473  -0.00908   1.96051
   A12        2.01063  -0.00106   0.00630  -0.02071  -0.01443   1.99620
    D1       -0.04241  -0.00010  -0.00193   0.00304   0.00112  -0.04129
    D2       -3.11742  -0.00002   0.00093  -0.00301  -0.00208  -3.11950
    D3        3.09943  -0.00022  -0.00227   0.00147  -0.00079   3.09864
    D4        0.02441  -0.00014   0.00059  -0.00457  -0.00399   0.02043
    D5        0.67221  -0.00036   0.00797  -0.01965  -0.01164   0.66057
    D6        2.80021   0.00037  -0.00945   0.03004   0.02057   2.82078
    D7       -2.53558  -0.00036   0.00537  -0.01395  -0.00855  -2.54414
    D8       -0.40759   0.00037  -0.01205   0.03575   0.02366  -0.38393
    D9        3.03014   0.00069   0.03947   0.05615   0.09559   3.12573
   D10        0.93655   0.00092   0.03865   0.06159   0.10019   1.03675
   D11       -1.24449   0.00022   0.02432   0.09441   0.11878  -1.12571
   D12        2.94511   0.00045   0.02351   0.09985   0.12338   3.06850
         Item               Value     Threshold  Converged?
 Maximum Force            0.002213     0.000450     NO 
 RMS     Force            0.000795     0.000300     NO 
 Maximum Displacement     0.235924     0.001800     NO 
 RMS     Displacement     0.068857     0.001200     NO 
 Predicted change in Energy=-1.488566D-04
 GradGradGradGradGradGradGradGradGradGradGradGradGradGradGradGradGradGrad

                          Input orientation:                          
 ---------------------------------------------------------------------
 Center     Atomic      Atomic             Coordinates (Angstroms)
 Number     Number       Type             X           Y           Z
 ---------------------------------------------------------------------
      1          6           0        2.301459    2.966733   -0.042291
      2          6           0        1.713929    1.735440    0.051418
      3          1           0       -1.299266    2.121028   -0.499227
      4          1           0       -1.982639   -2.286076   -0.197514
      5          1           0        0.678803   -2.640504    0.391765
      6         50           0       -0.303921    1.012466    0.379063
      7         50           0       -0.413836   -1.586988   -0.435382
      8         35           0        1.274140    4.632623    0.058723
      9          1           0        3.379249    3.096355   -0.177615
     10          9           0        2.693343    0.631079   -0.022475
 ---------------------------------------------------------------------
                    Distance matrix (angstroms):
                    1          2          3          4          5
     1  C    0.000000
     2  C    1.367500   0.000000
     3  H    3.726825   3.087269   0.000000
     4  H    6.780088   5.468013   4.469966   0.000000
     5  H    5.853420   4.509568   5.232477   2.748843   0.000000
     6  Sn   3.284008   2.168355   1.729455   3.745786   3.782869
     7  Sn   5.316364   3.975285   3.812801   1.733911   1.728562
     8  Br   1.959790   2.930382   3.638933   7.651186   7.305047
     9  H    1.093958   2.162831   4.789906   7.597420   6.366173
    10  F    2.368384   1.477945   4.288142   5.514094   3.864353
                    6          7          8          9         10
     6  Sn   0.000000
     7  Sn   2.726273   0.000000
     8  Br   3.962124   6.463510   0.000000
     9  H    4.268281   6.032217   2.616765   0.000000
    10  F    3.047996   3.839906   4.246537   2.563615   0.000000
 Stoichiometry    C2H4BrFSn2
 Framework group  C1[X(C2H4BrFSn2)]
 Deg. of freedom    24
 Full point group                 C1      NOp   1
 Largest Abelian subgroup         C1      NOp   1
 Largest concise Abelian subgroup C1      NOp   1
                         Standard orientation:                         
 ---------------------------------------------------------------------
 Center     Atomic      Atomic             Coordinates (Angstroms)
[...]
     4   1     0.11  -0.12   0.03    -0.17   0.18  -0.04     0.00   0.00   0.00
     5   1    -0.15  -0.32  -0.23     0.30   0.64   0.49     0.00   0.00   0.00
     6  50     0.00  -0.01   0.00     0.00   0.00   0.00     0.00   0.00   0.00
     7  50     0.00   0.00   0.00     0.00  -0.01   0.00     0.00   0.00   0.00
     8  35     0.00   0.00   0.00     0.00   0.00   0.00     0.00   0.00   0.00
     9   1     0.00   0.00   0.00     0.00   0.00   0.00     0.43  -0.90   0.02
    10   9     0.00   0.00   0.00     0.00   0.00   0.00     0.00   0.00   0.00

 -------------------
 - Thermochemistry -
 -------------------
 Temperature   298.150 Kelvin.  Pressure   1.00000 Atm.
 Atom     1 has atomic number  6 and mass  12.00000
 Atom     2 has atomic number  6 and mass  12.00000
 Atom     3 has atomic number  1 and mass   1.00783
 Atom     4 has atomic number  1 and mass   1.00783
 Atom     5 has atomic number  1 and mass   1.00783
 Atom     6 has atomic number 50 and mass 117.90180
 Atom     7 has atomic number 50 and mass 117.90180
 Atom     8 has atomic number 35 and mass  78.91834
 Atom     9 has atomic number  1 and mass   1.00783
 Atom    10 has atomic number  9 and mass  18.99840
 Molecular mass:   361.75164 amu.
 Principal axes and moments of inertia in atomic units:
                           1         2         3
     Eigenvalues --   829.789237648.869348267.46395
           X            0.99996  -0.00834   0.00281
           Y            0.00825   0.99946   0.03181
           Z           -0.00307  -0.03178   0.99949
 This molecule is an asymmetric top.
 Rotational symmetry number  1.
 Warning -- assumption of classical behavior for rotation
           may cause significant error
 Rotational temperatures (Kelvin)      0.10438     0.01132     0.01048
 Rotational constants (GHZ):           2.17494     0.23595     0.21829
 Zero-point vibrational energy     112155.0 (Joules/Mol)
                                   26.80568 (Kcal/Mol)
 Warning -- explicit consideration of  14 degrees of freedom as
           vibrations may cause significant error
 Vibrational temperatures:     23.56    56.05    97.65   249.71   273.69
          (Kelvin)            312.91   325.40   451.38   473.64   511.69
                              564.23   602.84   688.68   879.58  1085.33
                             1117.26  1184.17  1358.10  1803.65  2242.15
                             2664.90  2677.25  2690.48  4643.95
 
 Zero-point correction=                           0.042718 (Hartree/Particle)
 Thermal correction to Energy=                    0.052810
 Thermal correction to Enthalpy=                  0.053754
 Thermal correction to Gibbs Free Energy=         0.002175
 Sum of electronic and zero-point Energies=           -197.152198
 Sum of electronic and thermal Energies=              -197.142105
 Sum of electronic and thermal Enthalpies=            -197.141161
 Sum of electronic and thermal Free Energies=         -197.192741
 
                     E (Thermal)             CV                S
                      KCal/Mol        Cal/Mol-Kelvin    Cal/Mol-Kelvin
 Total                   33.139             32.061            108.558
 Electronic               0.000              0.000              0.000
 Translational            0.889              2.981             43.551
 Rotational               0.889              2.981             32.329
 Vibrational             31.361             26.100             32.679
 Vibration     1          0.593              1.986              7.031
 Vibration     2          0.594              1.981              5.311
 Vibration     3          0.598              1.970              4.214
 Vibration     4          0.627              1.875              2.397
 Vibration     5          0.634              1.853              2.226
 Vibration     6          0.646              1.814              1.980
 Vibration     7          0.650              1.801              1.909
 Vibration     8          0.702              1.647              1.343
 Vibration     9          0.712              1.617              1.264
 Vibration    10          0.731              1.564              1.141
 Vibration    11          0.760              1.487              0.992
 Vibration    12          0.782              1.429              0.895
 Vibration    13          0.835              1.297              0.714
 Vibration    14          0.970              1.008              0.431
                       Q            Log10(Q)             Ln(Q)
 Total Bot       0.999115D-01         -1.000384         -2.303470
 Total V=0       0.444928D+19         18.648290         42.939275
 Vib (Bot)       0.142472D-15        -15.846270        -36.487386
 Vib (Bot)    1  0.126495D+02          1.102074          2.537619
 Vib (Bot)    2  0.531141D+01          0.725210          1.669857
 Vib (Bot)    3  0.303960D+01          0.482817          1.111727
 Vib (Bot)    4  0.115981D+01          0.064388          0.148259
 Vib (Bot)    5  0.105205D+01          0.022037          0.050743
 Vib (Bot)    6  0.910473D+00         -0.040733         -0.093791
 Vib (Bot)    7  0.872325D+00         -0.059322         -0.136593
 Vib (Bot)    8  0.601429D+00         -0.220816         -0.508447
 Vib (Bot)    9  0.567856D+00         -0.245762         -0.565888
 Vib (Bot)   10  0.516871D+00         -0.286618         -0.659962
 Vib (Bot)   11  0.457089D+00         -0.339999         -0.782876
 Vib (Bot)   12  0.419392D+00         -0.377380         -0.868950
 Vib (Bot)   13  0.349808D+00         -0.456170         -1.050371
 Vib (Bot)   14  0.241396D+00         -0.617270         -1.421317
 Vib (V=0)       0.634460D+04          3.802404          8.755359
 Vib (V=0)    1  0.131594D+02          1.119236          2.577136
 Vib (V=0)    2  0.583489D+01          0.766033          1.763855
 Vib (V=0)    3  0.358045D+01          0.553938          1.275489
 Vib (V=0)    4  0.176300D+01          0.246252          0.567016
 Vib (V=0)    5  0.166482D+01          0.221368          0.509719
 Vib (V=0)    6  0.153873D+01          0.187163          0.430958
 Vib (V=0)    7  0.150546D+01          0.177669          0.409099
 Vib (V=0)    8  0.128212D+01          0.107930          0.248518
 Vib (V=0)    9  0.125661D+01          0.099201          0.228418
 Vib (V=0)   10  0.121914D+01          0.086052          0.198142
 Vib (V=0)   11  0.117744D+01          0.070940          0.163346
 Vib (V=0)   12  0.115260D+01          0.061679          0.142022
 Vib (V=0)   13  0.111022D+01          0.045408          0.104556
 Vib (V=0)   14  0.105522D+01          0.023344          0.053752
 Electronic      0.100000D+01          0.000000          0.000000
 Translational   0.270440D+09          8.432071         19.415561
 Rotational      0.259308D+07          6.413815         14.768355
 ***** Axes restored to original set *****
 -------------------------------------------------------------------
 Center     Atomic                   Forces (Hartrees/Bohr)
 Number     Number              X              Y              Z
 -------------------------------------------------------------------
      1        6           0.000007756   -0.000065255    0.000004432
      2        6           0.000013235    0.000055512   -0.000018706
      3        1           0.000005783   -0.000001681    0.000003006
      4        1           0.000004408    0.000006028   -0.000000696
      5        1          -0.000006446   -0.000000094   -0.000008141
      6       50          -0.000005443   -0.000004338   -0.000005477
      7       50           0.000005111   -0.000001734    0.000014980
      8       35          -0.000004620    0.000000111    0.000001949
      9        1          -0.000018872    0.000003844    0.000004060
     10        9          -0.000000913    0.000007606    0.000004594
 -------------------------------------------------------------------
 Cartesian Forces:  Max     0.000065255 RMS     0.000017300

 GradGradGradGradGradGradGradGradGradGradGradGradGradGradGradGradGradGrad
 Berny optimization.
 Internal  Forces:  Max     0.000062820 RMS     0.000013509
 Search for a local minimum.
 Step number   1 out of a maximum of    2
 All quantities printed in internal units (Hartrees-Bohrs-Radians)
 Second derivative matrix not updated -- analytic derivatives used.
     Eigenvalues ---    0.00174   0.00696   0.01013   0.01595   0.03171
     Eigenvalues ---    0.03302   0.04292   0.04363   0.06565   0.06919
     Eigenvalues ---    0.07845   0.08548   0.09492   0.11056   0.12751
     Eigenvalues ---    0.13113   0.13166   0.13249   0.15537   0.18631
     Eigenvalues ---    0.21060   0.28852   0.36681   0.550131000.00000
     Eigenvalues --- 1000.000001000.000001000.000001000.000001000.00000
     Eigenvalues --- 1000.000001000.000001000.00000
 Angle between quadratic step and forces=  73.90 degrees.
 Linear search not attempted -- first point.
 Iteration  1 RMS(Cart)=  0.00087875 RMS(Int)=  0.00000020
 Iteration  2 RMS(Cart)=  0.00000030 RMS(Int)=  0.00000001
 Variable       Old X    -DE/DX   Delta X   Delta X   Delta X     New X
                                 (Linear)    (Quad)   (Total)
    R1        2.58052  -0.00006   0.00000  -0.00012  -0.00012   2.58040
    R2        3.70301   0.00000   0.00000   0.00007   0.00007   3.70308
    R3        2.06603  -0.00002   0.00000  -0.00006  -0.00006   2.06597
    R4        4.10367   0.00000   0.00000  -0.00002  -0.00002   4.10365
    R5        2.77805  -0.00001   0.00000  -0.00002  -0.00002   2.77803
    R6        3.27097  -0.00001   0.00000  -0.00005  -0.00005   3.27091
    R7        3.27898  -0.00001   0.00000  -0.00005  -0.00005   3.27893
    R8        3.26950  -0.00001   0.00000  -0.00008  -0.00008   3.26942
    R9        5.16541  -0.00001   0.00000  -0.00015  -0.00015   5.16526
    A1        2.14379  -0.00001   0.00000  -0.00012  -0.00012   2.14367
    A2        2.13963   0.00001   0.00000   0.00016   0.00016   2.13979
    A3        1.99976   0.00000   0.00000  -0.00003  -0.00003   1.99973
    A4        2.36476   0.00000   0.00000  -0.00013  -0.00013   2.36464
    A5        1.97522   0.00000   0.00000   0.00002   0.00002   1.97524
    A6        1.94175   0.00001   0.00000   0.00009   0.00009   1.94183
    A7        1.80611  -0.00001   0.00000  -0.00003  -0.00003   1.80608
    A8        1.90154   0.00001   0.00000   0.00032   0.00032   1.90186
    A9        2.02487   0.00000   0.00000  -0.00011  -0.00011   2.02477
   A10        1.82791   0.00000   0.00000   0.00004   0.00004   1.82795
   A11        1.94826  -0.00001   0.00000  -0.00031  -0.00031   1.94795
   A12        1.98627   0.00002   0.00000   0.00040   0.00040   1.98667
    D1       -0.04386   0.00000   0.00000  -0.00040  -0.00040  -0.04426
    D2       -3.12053   0.00001   0.00000   0.00013   0.00013  -3.12040
    D3        3.09547  -0.00001   0.00000  -0.00044  -0.00044   3.09503
    D4        0.01879   0.00000   0.00000   0.00009   0.00009   0.01889
    D5        0.61370   0.00000   0.00000   0.00105   0.00105   0.61475
    D6        2.77796   0.00001   0.00000   0.00107   0.00107   2.77903
    D7       -2.59193   0.00000   0.00000   0.00052   0.00052  -2.59140
    D8       -0.42767   0.00000   0.00000   0.00055   0.00055  -0.42712
    D9        3.07542   0.00000   0.00000   0.00018   0.00018   3.07560
   D10        1.01093   0.00000   0.00000   0.00007   0.00007   1.01100
   D11       -1.17925   0.00000   0.00000   0.00031   0.00031  -1.17895
   D12        3.03944   0.00000   0.00000   0.00020   0.00020   3.03964
         Item               Value     Threshold  Converged?
 Maximum Force            0.000063     0.000450     YES
 RMS     Force            0.000014     0.000300     YES
 Maximum Displacement     0.002103     0.001800     NO 
 RMS     Displacement     0.000879     0.001200     YES
 Predicted change in Energy=-2.115337D-08
 GradGradGradGradGradGradGradGradGradGradGradGradGradGradGradGradGradGrad

 1\1\GINC-MALLOS66\Freq\RMP2-FC\LANL2DZ\C2H4Br1F1Sn2\MARLIN\24-Oct-2024
 \0\\#N Geom=AllCheck Guess=TCheck SCRF=Check GenChk RMP2(FC)/LANL2DZ F
 req\\Title Card Required\\0,1\C,2.2993754373,2.9697900288,-0.044403514
 9\C,1.7201630595,1.7383758653,0.0689980158\H,-1.2813349811,2.133011940
 9,-0.4785382408\H,-1.9921601174,-2.290646756,-0.1510465055\H,0.6868325
 231,-2.6494225878,0.3235522471\Sn,-0.2973848102,0.9989247437,0.3827259
 032\Sn,-0.4341967114,-1.5953299055,-0.4673875932\Br,1.2691617278,4.636
 1798189,-0.0039962436\H,3.3777991933,3.1046519896,-0.1631950724\F,2.69
 3005799,0.6366221021,0.0397545744\\Version=EM64L-G09RevA.01\State=1-A\
 HF=-196.7799313\MP2=-197.1949155\RMSD=8.360e-10\RMSF=1.730e-05\ZeroPoi
 nt=0.0427176\Thermal=0.0528102\Dipole=-0.5104574,-0.0620939,-0.0797829
 \DipoleDeriv=-0.1529896,-0.7038347,-0.0241233,-0.0291235,0.5661099,0.0
 280194,-0.0185639,0.0282351,-0.2541196,0.3322066,-0.056466,0.0357845,-
 0.3867541,0.0022897,-0.006606,0.1079239,0.3184772,0.0039969,-0.2701607
 ,-0.0812009,-0.0141896,0.0568346,-0.2769605,0.0771894,-0.0635451,0.314
 7567,-0.067553,-0.330953,-0.1537293,-0.0447529,-0.1173125,-0.3138164,0
 .0500186,0.0863754,0.2956834,-0.0724726,-0.2305686,-0.0006436,-0.00388
 18,0.0639398,-0.3351384,0.080291,-0.028956,0.3361313,-0.0703777,0.7988
 535,0.4987438,0.0610657,0.1626836,0.6993374,-0.1714083,-0.05038,-0.637
 7358,0.2197268,0.6195005,0.1185599,0.0269868,0.0278765,0.7131557,-0.12
 03799,-0.0747204,-0.6358377,0.1991437,-0.0552023,0.1545547,0.0096201,0
 .0118797,-0.2579749,0.0109482,0.0170062,0.005436,-0.0123491,-0.0200075
 ,0.0405811,0.0251976,0.0117649,-0.1075397,0.0023143,0.0006548,-0.04589
 57,0.2429372,-0.690679,0.1834349,-0.071707,0.1982109,-0.6894627,0.0496
 133,0.0242051,0.0207495,-0.1889327\Polar=95.9312267,12.2633376,201.251
 6188,4.888656,34.4740487,62.3290714\PG=C01 [X(C2H4Br1F1Sn2)]\NImag=0\\
 0.57151358,0.15628953,0.58980556,-0.05907973,-0.04001506,0.08254632,-0
 .16682026,-0.15435703,0.02029427,0.39206050,-0.19209956,-0.39351179,0.
 03607916,0.13163269,0.56891298,0.02361331,0.03256103,-0.04105819,-0.04
 361867,-0.04270566,0.07168694,-0.00009833,0.00092227,0.00027484,-0.001
 47050,0.00559218,-0.00568992,0.05131020,0.00128511,-0.00078609,0.00012
 630,-0.00064933,0.00215361,-0.00180286,-0.04418367,0.06362446,-0.00043
 365,-0.00027656,0.00002220,0.00190763,0.00108949,0.00019593,0.03416348
 ,-0.04037086,0.03518613,0.00005929,0.00017420,-0.00006397,0.00005277,0
 .00049189,-0.00012942,0.00006673,-0.00014323,-0.00000872,0.10796027,-0
 .00099653,0.00026956,0.00005018,0.00098884,-0.00184154,-0.00220301,0.0
 0043112,-0.00052211,-0.00112000,0.04226961,0.03068523,-0.00076055,-0.0
 0013170,0.00020895,-0.00003201,-0.00175304,0.00099285,0.00017386,-0.00
 117605,-0.00091955,-0.01732707,-0.01013149,0.00984827,0.00022364,-0.00
 008922,-0.00001110,-0.00023340,0.00082857,0.00003317,0.00024861,-0.000
 12986,-0.00060087,-0.00572029,0.00577473,-0.00495307,0.06403524,-0.000
 16978,0.00000906,-0.00001353,0.00046338,-0.00034241,-0.00122660,-0.000
 09301,-0.00159312,-0.00216323,-0.00321143,0.00314391,-0.00105370,-0.04
 711924,0.05556911,0.00015569,-0.00058125,0.00010741,-0.00056261,0.0001
 7395,-0.00127965,-0.00061797,-0.00194731,0.00056599,0.00236878,-0.0004
 4561,0.00091932,0.03615524,-0.03454173,0.03032260,0.00197309,-0.002338
 35,0.00011913,-0.09851722,-0.03633362,0.01912300,-0.04610657,0.0447452
 0,-0.03785380,-0.00028335,-0.00504474,-0.00183101,0.00008833,0.0028976
 3,0.00096103,0.16234938,-0.01338488,-0.00023463,0.00116591,-0.03651786
 ,-0.02789410,0.01472017,0.03813767,-0.06550214,0.04708499,0.00153316,0
 .00314929,-0.00116407,-0.00069364,0.00184799,-0.00220566,-0.00256949,0
 .17583858,-0.00043107,0.00055826,0.00146676,0.01198824,0.00364821,-0.0
 1809380,-0.02937616,0.03675857,-0.03656847,0.00131805,0.00632323,0.000
 43228,0.00031052,0.00791458,0.00160025,0.02102652,-0.03512938,0.060290
 38,-0.00238891,0.00068004,0.00020967,0.00117595,-0.00691467,-0.0018041
 4,0.00035303,0.00243460,0.00145649,-0.10216502,-0.04344029,0.02431780,
 -0.05889599,0.04765530,-0.03905424,-0.00780539,-0.00233048,-0.00228445
 ,0.16996094,0.00201242,0.00006236,-0.00023930,-0.00063823,0.00135384,-
 0.00145377,-0.00030936,0.00220133,-0.00279119,-0.04067024,-0.03439434,
 0.01571681,0.04186144,-0.05861858,0.04019963,-0.00408334,-0.07869210,-
 0.02087400,0.00118785,0.16711913,0.00152110,0.00095860,-0.00032522,0.0
 0114115,0.00377559,0.00092104,0.00036285,0.00799142,0.00116231,0.01383
 995,0.00724621,-0.01147789,-0.03100027,0.03082760,-0.03230897,-0.00189
 485,-0.02161962,-0.01376300,0.01713432,-0.03088397,0.05614147,-0.05835
 045,0.04829525,0.00261022,-0.00065894,-0.00249528,-0.00020258,-0.00014
 849,-0.00151049,0.00003056,0.00000826,-0.00002584,-0.00000046,0.000009
 07,-0.00013987,-0.00010685,-0.00185679,0.00049639,-0.00026841,0.000191
 99,0.00003529,0.00031482,0.06316022,0.04811788,-0.10200615,-0.00127717
 ,0.02433545,-0.02083594,-0.00102843,-0.00080111,-0.00095374,-0.0003106
 6,-0.00005893,-0.00007085,-0.00004656,-0.00005924,-0.00008907,-0.00002
 298,0.00048023,-0.00084643,-0.00039923,0.00018270,0.00016535,0.0002290
 7,-0.06883835,0.13917101,0.00241943,-0.00126276,-0.01387619,-0.0012498
 0,0.00084032,-0.00192318,-0.00018943,-0.00012145,0.00017209,-0.0000183
 0,-0.00009497,0.00008733,0.00002274,-0.00004008,-0.00005542,0.00033668
 ,-0.00000186,-0.00091104,-0.00014004,-0.00009409,-0.00003884,-0.002479
 40,0.00227166,0.00747130,-0.34740908,-0.04896567,0.03534915,-0.0057949
 7,0.00627866,0.00181415,0.00004049,-0.00011708,0.00002038,0.00003803,0
 .00001792,-0.00010067,0.00001009,-0.00000491,-0.00001524,0.00006438,-0
 .00015775,0.00016022,-0.00004371,0.00019020,0.00023145,-0.00442663,-0.
 00065269,0.00072209,0.35578067,-0.03895755,-0.04754549,0.00494583,-0.0
 2971400,-0.00325449,0.00401098,-0.00013876,0.00016776,-0.00004840,0.00
 001700,-0.00023754,-0.00022347,0.00005346,-0.00004922,0.00004077,0.000
 80656,-0.00188799,-0.00018806,-0.00052817,0.00055428,0.00044670,0.0251
 1840,-0.01094949,-0.00217491,0.04249426,0.05961851,0.03465550,0.006405
 98,-0.03575080,0.00364515,0.00025413,0.01358590,0.00055598,0.00019981,
 -0.00017400,0.00004118,0.00037749,-0.00024400,-0.00001956,0.00019662,0
 .00014970,-0.00055327,-0.00075381,0.00384220,0.00031997,0.00016827,0.0
 0003479,-0.00035317,0.00006254,0.00213184,-0.03714091,-0.00621505,0.02
 386632,0.00129743,-0.00061102,0.00029752,-0.11979394,0.09301915,0.0068
 6110,-0.00419517,-0.00173125,0.00131851,-0.00001669,0.00002518,0.00051
 318,0.00023470,-0.00027808,0.00071616,-0.00990586,0.01548689,-0.002443
 48,-0.00038290,0.00041396,-0.00165052,0.00207176,-0.00270594,0.0005760
 3,0.00174074,0.00084882,-0.00115088,0.12894992,0.03790337,-0.04606239,
 -0.00082233,0.06445609,-0.12474015,-0.00087184,0.00044267,0.00121002,-
 0.00109357,-0.00040202,-0.00018161,-0.00003672,-0.00042699,0.00012232,
 -0.00066982,0.00143991,-0.00577846,0.00138782,0.00107312,0.00024872,0.
 00102841,-0.00093550,-0.00358470,0.00067813,0.00091704,0.00358366,-0.0
 0069600,-0.10446769,0.17518258,-0.00166002,0.00178346,0.00665876,0.006
 48666,-0.00140216,-0.02502784,0.00034246,0.00034243,0.00035737,-0.0000
 2048,-0.00000203,0.00015243,0.00006319,0.00010007,-0.00002124,0.000566
 56,-0.00209667,0.00170444,-0.00015538,0.00025161,-0.00034569,0.0004552
 7,0.00052178,0.00694210,-0.00104063,-0.00059439,-0.00744196,-0.0050376
 2,0.00109592,0.01702163\\-0.00000776,0.00006526,-0.00000443,-0.0000132
 4,-0.00005551,0.00001871,-0.00000578,0.00000168,-0.00000301,-0.0000044
 1,-0.00000603,0.00000070,0.00000645,0.00000009,0.00000814,0.00000544,0
 .00000434,0.00000548,-0.00000511,0.00000173,-0.00001498,0.00000462,-0.
 00000011,-0.00000195,0.00001887,-0.00000384,-0.00000406,0.00000091,-0.
 00000761,-0.00000459\\\@


 NEVER TEACH A PIG TO SING.
 IT WASTES YOUR TIME AND ANNOYS THE PIG.
     -- SEEN ON A GREETING CARD
 Job cpu time:  0 days  0 hours  3 minutes 42.1 seconds.
 File lengths (MBytes):  RWF=    145 Int=      0 D2E=      0 Chk=      1 Scr=      1
 Normal termination of Gaussian 09 at Thu Oct 24 12:19:47 2024.
