 Entering Gaussian System, Link 0=g09
 Initial command:
 /u/local/G09/g09/l1.exe /tmp1/marlin/22841.mallos00.local/Gau-37361.inp -scrdir=/tmp1/marlin/22841.mallos00.local/
 Entering Link 1 = /u/local/G09/g09/l1.exe PID=     37363.
  
 Copyright (c) 1988,1990,1992,1993,1995,1998,2003,2009, Gaussian, Inc.
                  All Rights Reserved.
  
 This is part of the Gaussian(R) 09 program.  It is based on
 the Gaussian(R) 03 system (copyright 2003, Gaussian, Inc.),
 the Gaussian(R) 98 system (copyright 1998, Gaussian, Inc.),
 the Gaussian(R) 94 system (copyright 1995, Gaussian, Inc.),
 the Gaussian 92(TM) system (copyright 1992, Gaussian, Inc.),
 the Gaussian 90(TM) system (copyright 1990, Gaussian, Inc.),
 the Gaussian 88(TM) system (copyright 1988, Gaussian, Inc.),
 the Gaussian 86(TM) system (copyright 1986, Carnegie Mellon
 University), and the Gaussian 82(TM) system (copyright 1983,
 Carnegie Mellon University). Gaussian is a federally registered
 trademark of Gaussian, Inc.
  
 This software contains proprietary and confidential information,
 including trade secrets, belonging to Gaussian, Inc.
  
 This software is provided under written license and may be
 used, copied, transmitted, or stored only in accord with that
 written license.
  
 The following legend is applicable only to US Government
 contracts under FAR:
  
                    RESTRICTED RIGHTS LEGEND
  
 Use, reproduction and disclosure by the US Government is
 subject to restrictions as set forth in subparagraphs (a)
 and (c) of the Commercial Computer Software - Restricted
 Rights clause in FAR 52.227-19.
  
 Gaussian, Inc.
 340 Quinnipiac St., Bldg. 40, Wallingford CT 06492
  
  
 ---------------------------------------------------------------
 Warning -- This program may not be used in any manner that
 competes with the business of Gaussian, Inc. or will provide
 assistance to any competitor of Gaussian, Inc.  The licensee
 of this program is prohibited from giving any competitor of
 Gaussian, Inc. access to this program.  By using this program,
 the user acknowledges that Gaussian, Inc. is engaged in the
 business of creating and licensing software in the field of
 computational chemistry and represents and warrants to the
 licensee that it is not a competitor of Gaussian, Inc. and that
 it will not use this program in any manner prohibited above.
 ---------------------------------------------------------------
  

 Cite this work as:
 Gaussian 09, Revision A.01,
 M. J. Frisch, G. W. Trucks, H. B. Schlegel, G. E. Scuseria, 
 M. A. Robb, J. R. Cheeseman, G. Scalmani, V. Barone, B. Mennucci, 
 G. A. Petersson, H. Nakatsuji, M. Caricato, X. Li, H. P. Hratchian, 
 A. F. Izmaylov, J. Bloino, G. Zheng, J. L. Sonnenberg, M. Hada, 
 M. Ehara, K. Toyota, R. Fukuda, J. Hasegawa, M. Ishida, T. Nakajima, 
 Y. Honda, O. Kitao, H. Nakai, T. Vreven, J. A. Montgomery, Jr., 
 J. E. Peralta, F. Ogliaro, M. Bearpark, J. J. Heyd, E. Brothers, 
 K. N. Kudin, V. N. Staroverov, R. Kobayashi, J. Normand, 
 K. Raghavachari, A. Rendell, J. C. Burant, S. S. Iyengar, J. Tomasi, 
 M. Cossi, N. Rega, J. M. Millam, M. Klene, J. E. Knox, J. B. Cross, 
 V. Bakken, C. Adamo, J. Jaramillo, R. Gomperts, R. E. Stratmann, 
 O. Yazyev, A. J. Austin, R. Cammi, C. Pomelli, J. W. Ochterski, 
 R. L. Martin, K. Morokuma, V. G. Zakrzewski, G. A. Voth, 
 P. Salvador, J. J. Dannenberg, S. Dapprich, A. D. Daniels, 
 O. Farkas, J. B. Foresman, J. V. Ortiz, J. Cioslowski, 
 and D. J. Fox, Gaussian, Inc., Wallingford CT, 2009.
 
 ******************************************
 Gaussian 09:  EM64L-G09RevA.01  8-May-2009
                25-Oct-2024 
 ******************************************
 %mem=103GB
 %nproc=20
 Will use up to   20 processors via shared memory.
 %chk=2-sddmp2.chk
 ----------------------------------------
 # opt freq=noraman mp2/sdd geom=allcheck
 ----------------------------------------
 1/18=20,19=15,29=7,38=1/1,3;
 2/9=110,12=2,40=1/2;
 3/5=17,6=7,11=9,14=-4,16=1,25=1,30=1,71=1/1,2,3;
 4//1;
 5/5=2,38=5/2;
 8/6=4,10=1/1;
 9/15=2,16=-3/6;
 10/5=1/2;
 6/7=2,8=2,9=2,10=2/1;
 7/12=2/1,2,3,16;
 1/18=20,19=15/3(2);
 2/9=110/2;
 99//99;
 2/9=110/2;
 3/5=17,6=7,11=9,14=-2,16=1,25=1,30=1,71=1/1,2,3;
 4/5=5,16=3/1;
 5/5=2,38=5/2;
 8/6=4,10=1/1;
 9/15=2,16=-3/6;
 10/5=1/2;
 7/12=2/1,2,3,16;
 1/18=20,19=15/3(-8);
 2/9=110/2;
 6/7=2,8=2,9=2,10=2/1;
 99//99;
 -------------------
 Title Card Required
 -------------------
 Redundant internal coordinates taken from checkpoint file:
 2-sddmp2.chk
 Charge =  0 Multiplicity = 1
 C,0,2.3001810768,2.9441516058,-0.056611034
 C,0,1.71643353,1.7636690509,0.0894450038
 H,0,-1.2341097276,2.1454129721,-0.5232124391
 H,0,-1.9388499849,-2.3600476424,-0.1927235923
 H,0,0.6803096999,-2.6878703745,0.2704007864
 Sn,0,-0.3348455879,1.0867533724,0.4957963932
 Sn,0,-0.4246442239,-1.5605288317,-0.4157537847
 Br,0,1.3093097471,4.598578723,-0.0159676739
 H,0,3.3519460879,3.0792519915,-0.2010113244
 F,0,2.6155305025,0.6727863731,0.0561012351
 Recover connectivity data from disk.

 GradGradGradGradGradGradGradGradGradGradGradGradGradGradGradGradGradGrad
 Berny optimization.
 Initialization pass.
                           ----------------------------
                           !    Initial Parameters    !
                           ! (Angstroms and Degrees)  !
 --------------------------                            --------------------------
 ! Name  Definition              Value          Derivative Info.                !
 --------------------------------------------------------------------------------
 ! R1    R(1,2)                  1.325          estimate D2E/DX2                !
 ! R2    R(1,8)                  1.9289         estimate D2E/DX2                !
 ! R3    R(1,9)                  1.0702         estimate D2E/DX2                !
 ! R4    R(2,6)                  2.198          estimate D2E/DX2                !
 ! R5    R(2,10)                 1.414          estimate D2E/DX2                !
 ! R6    R(3,6)                  1.7227         estimate D2E/DX2                !
 ! R7    R(4,7)                  1.7268         estimate D2E/DX2                !
 ! R8    R(5,7)                  1.7212         estimate D2E/DX2                !
 ! R9    R(6,7)                  2.8013         estimate D2E/DX2                !
 ! A1    A(2,1,8)              122.3791         estimate D2E/DX2                !
 ! A2    A(2,1,9)              124.078          estimate D2E/DX2                !
 ! A3    A(8,1,9)              113.542          estimate D2E/DX2                !
 ! A4    A(1,2,6)              134.904          estimate D2E/DX2                !
 ! A5    A(1,2,10)             113.8657         estimate D2E/DX2                !
 ! A6    A(6,2,10)             111.1106         estimate D2E/DX2                !
 ! A7    A(2,6,3)              100.8681         estimate D2E/DX2                !
 ! A8    A(2,6,7)              105.1176         estimate D2E/DX2                !
 ! A9    A(3,6,7)              111.81           estimate D2E/DX2                !
 ! A10   A(4,7,5)              102.016          estimate D2E/DX2                !
 ! A11   A(4,7,6)              115.0646         estimate D2E/DX2                !
 ! A12   A(5,7,6)              117.9474         estimate D2E/DX2                !
 ! D1    D(8,1,2,6)             -3.2715         estimate D2E/DX2                !
 ! D2    D(8,1,2,10)          -178.8258         estimate D2E/DX2                !
 ! D3    D(9,1,2,6)            176.3513         estimate D2E/DX2                !
 ! D4    D(9,1,2,10)             0.7971         estimate D2E/DX2                !
 ! D5    D(1,2,6,3)             42.1349         estimate D2E/DX2                !
 ! D6    D(1,2,6,7)            158.4778         estimate D2E/DX2                !
 ! D7    D(10,2,6,3)          -142.223          estimate D2E/DX2                !
 ! D8    D(10,2,6,7)           -25.8801         estimate D2E/DX2                !
 ! D9    D(2,6,7,4)            179.0231         estimate D2E/DX2                !
 ! D10   D(2,6,7,5)             58.4733         estimate D2E/DX2                !
 ! D11   D(3,6,7,4)            -72.4064         estimate D2E/DX2                !
 ! D12   D(3,6,7,5)            167.0438         estimate D2E/DX2                !
 --------------------------------------------------------------------------------
 Trust Radius=3.00D-01 FncErr=1.00D-07 GrdErr=1.00D-07
 Number of steps in this run=  43 maximum allowed number of steps= 100.
 GradGradGradGradGradGradGradGradGradGradGradGradGradGradGradGradGradGrad

                          Input orientation:                          
 ---------------------------------------------------------------------
 Center     Atomic      Atomic             Coordinates (Angstroms)
 Number     Number       Type             X           Y           Z
 ---------------------------------------------------------------------
      1          6           0        2.300181    2.944152   -0.056611
      2          6           0        1.716434    1.763669    0.089445
      3          1           0       -1.234110    2.145413   -0.523212
      4          1           0       -1.938850   -2.360048   -0.192724
      5          1           0        0.680310   -2.687870    0.270401
      6         50           0       -0.334846    1.086753    0.495796
      7         50           0       -0.424644   -1.560529   -0.415754
      8         35           0        1.309310    4.598579   -0.015968
      9          1           0        3.351946    3.079252   -0.201011
     10          9           0        2.615531    0.672786    0.056101
 ---------------------------------------------------------------------
                    Distance matrix (angstroms):
                    1          2          3          4          5
     1  C    0.000000
     2  C    1.325003   0.000000
     3  H    3.653343   3.037562   0.000000
     4  H    6.791350   5.517767   4.572205   0.000000
     5  H    5.869463   4.574112   5.258845   2.679916   0.000000
     6  Sn   3.270848   2.197972   1.722735   3.863590   3.915243
     7  Sn   5.276912   3.986193   3.794837   1.726787   1.721229
     8  Br   1.928887   2.865933   3.569916   7.681423   7.319152
     9  H    1.070193   2.118968   4.691245   7.588055   6.373348
    10  F    2.295920   1.414041   4.162207   5.477443   3.883944
                    6          7          8          9         10
     6  Sn   0.000000
     7  Sn   2.801266   0.000000
     8  Br   3.911274   6.411009   0.000000
     9  H    4.248297   5.986344   2.552442   0.000000
    10  F    3.011548   3.801711   4.138025   2.529722   0.000000
 Stoichiometry    C2H4BrFSn2
 Framework group  C1[X(C2H4BrFSn2)]
 Deg. of freedom    24
 Full point group                 C1      NOp   1
 Largest Abelian subgroup         C1      NOp   1
 Largest concise Abelian subgroup C1      NOp   1
                         Standard orientation:                         
 ---------------------------------------------------------------------
 Center     Atomic      Atomic             Coordinates (Angstroms)
 Number     Number       Type             X           Y           Z
 ---------------------------------------------------------------------
      1          6           0       -2.387152    1.265337    0.032544
      2          6           0       -1.091843    1.051373    0.211497
      3          1           0       -0.479246   -1.704035   -0.910661
      4          1           0        3.991021   -1.055430   -0.202792
      5          1           0        3.441126    1.402407    0.712962
      6         50           0        0.180854   -0.735158    0.351623
      7         50           0        2.763674    0.157694   -0.263961
      8         35           0       -3.638932   -0.170352   -0.271515
      9          1           0       -2.842569    2.233689    0.046844
     10          9           0       -0.344459    2.228734    0.445482
 ---------------------------------------------------------------------
 Rotational constants (GHZ):      2.0994129      0.2401769      0.2219655
 Standard basis: SDD (6D, 10F)
 There are    65 symmetry adapted basis functions of A   symmetry.
 Integral buffers will be    131072 words long.
 Raffenetti 1 integral format.
 Two-electron integral symmetry is turned on.
    65 basis functions,   139 primitive gaussians,    65 cartesian basis functions
    20 alpha electrons       20 beta electrons
       nuclear repulsion energy       134.1980775847 Hartrees.
 NAtoms=   10 NActive=   10 NUniq=   10 SFac= 7.50D-01 NAtFMM=   80 NAOKFM=F Big=F
 One-electron integrals computed using PRISM.
   1 Symmetry operations used in ECPInt.
 ECPInt:  NShTT=     780 NPrTT=    3579 LenC2=     772 LenP2D=    2876.
 LDataN:  DoStor=T MaxTD1= 5 Len=  102
 NBasis=    65 RedAO= T  NBF=    65
 NBsUse=    65 1.00D-06 NBFU=    65
 Harris functional with IExCor=  205 diagonalized for initial guess.
 ExpMin= 3.61D-02 ExpMax= 9.99D+03 ExpMxC= 1.51D+03 IAcc=3 IRadAn=         0 AccDes= 0.00D+00
 HarFok:  IExCor=  205 AccDes= 0.00D+00 IRadAn=         0 IDoV= 1
 ScaDFX=  1.000000  1.000000  1.000000  1.000000
 Defaulting to unpruned grid for atomic number  50.
 Defaulting to unpruned grid for atomic number  50.
 Defaulting to unpruned grid for atomic number  50.
 Defaulting to unpruned grid for atomic number  50.
 Defaulting to unpruned grid for atomic number  50.
 Defaulting to unpruned grid for atomic number  50.
 Defaulting to unpruned grid for atomic number  50.
 Defaulting to unpruned grid for atomic number  50.
 Defaulting to unpruned grid for atomic number  50.
 Defaulting to unpruned grid for atomic number  50.
 Defaulting to unpruned grid for atomic number  50.
 Defaulting to unpruned grid for atomic number  50.
 Defaulting to unpruned grid for atomic number  50.
 Defaulting to unpruned grid for atomic number  50.
 Defaulting to unpruned grid for atomic number  50.
 Defaulting to unpruned grid for atomic number  50.
 Defaulting to unpruned grid for atomic number  50.
 Defaulting to unpruned grid for atomic number  50.
 Defaulting to unpruned grid for atomic number  50.
 Defaulting to unpruned grid for atomic number  50.
 FoFCou: FMM=F IPFlag=           0 FMFlag=      100000 FMFlg1=           0
         NFxFlg=           0 DoJE=T BraDBF=F KetDBF=T FulRan=T
         Omega=  0.000000  0.000000  1.000000  0.000000  0.000000 ICntrl=     500 IOpCl=  0
         NMat0=    1 NMatS0=    1 NMatT0=    0 NMatD0=    1 NMtDS0=    0 NMtDT0=    0
         I1Cent=           4 NGrid=           0.
 Petite list used in FoFCou.
 Initial guess orbital symmetries:
       Occupied  (A) (A) (A) (A) (A) (A) (A) (A) (A) (A) (A) (A)
                 (A) (A) (A) (A) (A) (A) (A) (A)
       Virtual   (A) (A) (A) (A) (A) (A) (A) (A) (A) (A) (A) (A)
                 (A) (A) (A) (A) (A) (A) (A) (A) (A) (A) (A) (A)
                 (A) (A) (A) (A) (A) (A) (A) (A) (A) (A) (A) (A)
                 (A) (A) (A) (A) (A) (A) (A) (A) (A)
 The electronic state of the initial guess is 1-A.
 Requested convergence on RMS density matrix=1.00D-08 within 128 cycles.
 Requested convergence on MAX density matrix=1.00D-06.
 Requested convergence on             energy=1.00D-06.
 No special actions if energy rises.
 Keep R1 ints in memory in canonical form, NReq=3134234.
 SCF Done:  E(RHF) =  -197.000699875     A.U. after   15 cycles
             Convg  =    0.8932D-08             -V/T =  2.0701
 ExpMin= 3.61D-02 ExpMax= 9.99D+03 ExpMxC= 1.51D+03 IAcc=3 IRadAn=         5 AccDes= 0.00D+00
 HarFok:  IExCor=  205 AccDes= 0.00D+00 IRadAn=         5 IDoV=-2
 ScaDFX=  1.000000  1.000000  1.000000  1.000000
 Defaulting to unpruned grid for atomic number  50.
 Defaulting to unpruned grid for atomic number  50.
 Defaulting to unpruned grid for atomic number  50.
 Defaulting to unpruned grid for atomic number  50.
 Defaulting to unpruned grid for atomic number  50.
 Defaulting to unpruned grid for atomic number  50.
 Defaulting to unpruned grid for atomic number  50.
 Defaulting to unpruned grid for atomic number  50.
 Defaulting to unpruned grid for atomic number  50.
 Defaulting to unpruned grid for atomic number  50.
 Defaulting to unpruned grid for atomic number  50.
 Defaulting to unpruned grid for atomic number  50.
 Defaulting to unpruned grid for atomic number  50.
 Defaulting to unpruned grid for atomic number  50.
 Defaulting to unpruned grid for atomic number  50.
 Defaulting to unpruned grid for atomic number  50.
 Defaulting to unpruned grid for atomic number  50.
 Defaulting to unpruned grid for atomic number  50.
 Defaulting to unpruned grid for atomic number  50.
 Defaulting to unpruned grid for atomic number  50.
 Range of M.O.s used for correlation:     4    65
 NBasis=    65 NAE=    20 NBE=    20 NFC=     3 NFV=     0
 NROrb=     62 NOA=    17 NOB=    17 NVA=    45 NVB=    45
 Fully direct method using O(ONN) memory.
 JobTyp=1 Pass  1:  I=   4 to  20 NPSUse= 20 ParTrn=T ParDer=T DoDerP=T.
 Spin components of T(2) and E(2):
     alpha-alpha T2 =       0.2049589519D-01 E2=     -0.4535057471D-01
     alpha-beta  T2 =       0.1579791944D+00 E2=     -0.3121838950D+00
     beta-beta   T2 =       0.2049589519D-01 E2=     -0.4535057471D-01
 ANorm=    0.1094975335D+01
 E2 =    -0.4028850444D+00 EUMP2 =    -0.19740358491956D+03
          IDoAtm=1111111111
          Differentiating once with respect to electric field.
                with respect to dipole field.
          Differentiating once with respect to nuclear coordinates.
          Keep R1 ints in memory in canonical form, NReq=3102463.
          There are     1 degrees of freedom in the 1st order CPHF.  IDoFFX=0.
 LinEq1:  Iter=  0 NonCon=     1 RMS=8.89D-03 Max=8.92D-02
 AX will form     1 AO Fock derivatives at one time.
 LinEq1:  Iter=  1 NonCon=     1 RMS=3.40D-03 Max=3.11D-02
 LinEq1:  Iter=  2 NonCon=     1 RMS=1.16D-03 Max=1.27D-02
 LinEq1:  Iter=  3 NonCon=     1 RMS=2.82D-04 Max=3.20D-03
 LinEq1:  Iter=  4 NonCon=     1 RMS=8.61D-05 Max=8.08D-04
 LinEq1:  Iter=  5 NonCon=     1 RMS=2.64D-05 Max=1.96D-04
 LinEq1:  Iter=  6 NonCon=     1 RMS=9.04D-06 Max=1.63D-04
 LinEq1:  Iter=  7 NonCon=     1 RMS=3.45D-06 Max=2.14D-05
 LinEq1:  Iter=  8 NonCon=     1 RMS=1.10D-06 Max=9.44D-06
 LinEq1:  Iter=  9 NonCon=     1 RMS=3.59D-07 Max=5.30D-06
 LinEq1:  Iter= 10 NonCon=     1 RMS=7.86D-08 Max=7.43D-07
 LinEq1:  Iter= 11 NonCon=     1 RMS=1.35D-08 Max=9.37D-08
 LinEq1:  Iter= 12 NonCon=     1 RMS=2.20D-09 Max=1.62D-08
 LinEq1:  Iter= 13 NonCon=     1 RMS=3.95D-10 Max=2.22D-09
 LinEq1:  Iter= 14 NonCon=     0 RMS=5.65D-11 Max=4.05D-10
 Linear equations converged to 1.000D-10 1.000D-09 after    14 iterations.
 End of Minotr Frequency-dependent properties file   721 does not exist.
 End of Minotr Frequency-dependent properties file   722 does not exist.

 **********************************************************************

            Population analysis using the SCF density.

 **********************************************************************

 Orbital symmetries:
       Occupied  (A) (A) (A) (A) (A) (A) (A) (A) (A) (A) (A) (A)
                 (A) (A) (A) (A) (A) (A) (A) (A)
       Virtual   (A) (A) (A) (A) (A) (A) (A) (A) (A) (A) (A) (A)
                 (A) (A) (A) (A) (A) (A) (A) (A) (A) (A) (A) (A)
                 (A) (A) (A) (A) (A) (A) (A) (A) (A) (A) (A) (A)
                 (A) (A) (A) (A) (A) (A) (A) (A) (A)
 The electronic state is 1-A.
 Alpha  occ. eigenvalues --  -26.29170 -11.34226 -11.30797  -1.59744  -1.11707
 Alpha  occ. eigenvalues --   -1.00237  -0.79444  -0.70210  -0.69253  -0.67054
 Alpha  occ. eigenvalues --   -0.66470  -0.60739  -0.52748  -0.47711  -0.46188
 Alpha  occ. eigenvalues --   -0.44877  -0.42351  -0.40093  -0.37211  -0.28526
 Alpha virt. eigenvalues --   -0.03521   0.08185   0.08402   0.09864   0.10858
 Alpha virt. eigenvalues --    0.11046   0.13735   0.15974   0.16952   0.18212
 Alpha virt. eigenvalues --    0.22777   0.29601   0.32314   0.40846   0.43750
 Alpha virt. eigenvalues --    0.47639   0.48934   0.49308   0.51487   0.52264
 Alpha virt. eigenvalues --    0.52815   0.56456   0.60465   0.61727   0.64032
 Alpha virt. eigenvalues --    0.65028   0.65264   0.79169   0.88670   1.10998
 Alpha virt. eigenvalues --    1.16274   1.18578   1.22915   1.26166   1.28370
 Alpha virt. eigenvalues --    1.33114   1.47788   1.64346   2.23816   7.10813
 Alpha virt. eigenvalues --   12.04562  13.58383  23.69342  24.03163  55.16894
          Condensed to atoms (all electrons):
              1          2          3          4          5          6
     1  C    5.721130   0.267457   0.002738   0.000000   0.000002  -0.082288
     2  C    0.267457   5.481947  -0.022514   0.000064   0.000150   0.221759
     3  H    0.002738  -0.022514   0.849423   0.000023   0.000008   0.349585
     4  H    0.000000   0.000064   0.000023   0.871873  -0.012406  -0.007449
     5  H    0.000002   0.000150   0.000008  -0.012406   0.840037  -0.008305
     6  Sn  -0.082288   0.221759   0.349585  -0.007449  -0.008305   2.793077
     7  Sn  -0.000832  -0.028347  -0.010900   0.328808   0.341701   0.234227
     8  Br   0.254305  -0.106766  -0.001758   0.000006   0.000003  -0.000123
     9  H    0.359058  -0.026676   0.000000   0.000000   0.000000   0.002449
    10  F   -0.030146   0.117135   0.000159   0.000000  -0.000026  -0.031696
              7          8          9         10
     1  C   -0.000832   0.254305   0.359058  -0.030146
     2  C   -0.028347  -0.106766  -0.026676   0.117135
     3  H   -0.010900  -0.001758   0.000000   0.000159
     4  H    0.328808   0.000006   0.000000   0.000000
     5  H    0.341701   0.000003   0.000000  -0.000026
     6  Sn   0.234227  -0.000123   0.002449  -0.031696
     7  Sn   2.691129  -0.001134  -0.000025   0.002386
     8  Br  -0.001134   6.859551  -0.045688   0.003872
     9  H   -0.000025  -0.045688   0.438732  -0.005476
    10  F    0.002386   0.003872  -0.005476   9.326419
 Mulliken atomic charges:
              1
     1  C   -0.491424
     2  C    0.095792
     3  H   -0.166764
     4  H   -0.180919
     5  H   -0.161164
     6  Sn   0.528764
     7  Sn   0.442986
     8  Br   0.037731
     9  H    0.277625
    10  F   -0.382627
 Sum of Mulliken atomic charges =   0.00000
 Mulliken charges with hydrogens summed into heavy atoms:
              1
     1  C   -0.213800
     2  C    0.095792
     6  Sn   0.362000
     7  Sn   0.100903
     8  Br   0.037731
    10  F   -0.382627
 Sum of Mulliken charges with hydrogens summed into heavy atoms =   0.00000
 Electronic spatial extent (au):  <R**2>=           1155.4681
 Charge=              0.0000 electrons
 Dipole moment (field-independent basis, Debye):
    X=              1.9287    Y=             -0.9617    Z=             -0.5104  Tot=              2.2148
 Quadrupole moment (field-independent basis, Debye-Ang):
   XX=            -65.9141   YY=            -69.7049   ZZ=            -68.9227
   XY=             -0.8211   XZ=             -5.0941   YZ=             -2.5434
 Traceless Quadrupole moment (field-independent basis, Debye-Ang):
   XX=              2.2665   YY=             -1.5243   ZZ=             -0.7422
   XY=             -0.8211   XZ=             -5.0941   YZ=             -2.5434
 Octapole moment (field-independent basis, Debye-Ang**2):
  XXX=             94.0317  YYY=            -47.6536  ZZZ=             -3.3752  XYY=             11.4573
  XXY=              3.3634  XXZ=            -13.4802  XZZ=             30.4671  YZZ=            -11.7603
  YYZ=             -4.2429  XYZ=             -2.9141
 Hexadecapole moment (field-independent basis, Debye-Ang**3):
 XXXX=          -2532.4871 YYYY=           -482.2957 ZZZZ=           -170.3311 XXXY=             83.9301
 XXXZ=            -72.6046 YYYX=             30.9023 YYYZ=            -27.7175 ZZZX=            -25.8961
 ZZZY=            -15.6052 XXYY=           -459.1459 XXZZ=           -437.5702 YYZZ=           -110.2905
 XXYZ=            -17.7911 YYXZ=            -12.3230 ZZXY=             21.9882
 N-N= 1.341980775847D+02 E-N=-7.261263686693D+02  KE= 1.841039261772D+02
   1 Symmetry operations used in ECPInt.
 ECPInt:  NShTT=     780 NPrTT=    3579 LenC2=     772 LenP2D=    2876.
 LDataN:  DoStor=T MaxTD1= 6 Len=  172
 Calling FoFJK, ICntrl=      2127 FMM=F ISym2X=0 I1Cent= 0 IOpClX= 0 NMat=1 NMatS=1 NMatT=0.
 ***** Axes restored to original set *****
 -------------------------------------------------------------------
 Center     Atomic                   Forces (Hartrees/Bohr)
 Number     Number              X              Y              Z
 -------------------------------------------------------------------
      1        6           0.006015144    0.034590981   -0.002774333
      2        6          -0.034094028   -0.019213109    0.006523324
      3        1          -0.003973649    0.002605432   -0.001837052
      4        1          -0.004372431   -0.000732645    0.000407570
      5        1           0.003751696   -0.001609386    0.002162641
      6       50           0.000013311   -0.008150921   -0.000849215
      7       50           0.000689729    0.008468965   -0.000615844
      8       35          -0.005127876    0.009489946    0.000240532
      9        1           0.016520119    0.000906525   -0.002610450
     10        9           0.020577984   -0.026355789   -0.000647172
 -------------------------------------------------------------------
 Cartesian Forces:  Max     0.034590981 RMS     0.012297467

 GradGradGradGradGradGradGradGradGradGradGradGradGradGradGradGradGradGrad
 Berny optimization.
 Internal  Forces:  Max     0.048316703 RMS     0.011048628
 Search for a local minimum.
 Step number   1 out of a maximum of   43
 All quantities printed in internal units (Hartrees-Bohrs-Radians)
 Mixed Optimization -- RFO/linear search
 Second derivative matrix not updated -- first step.
     Eigenvalues ---    0.00230   0.00230   0.01695   0.03081   0.03081
     Eigenvalues ---    0.03701   0.04657   0.06952   0.10644   0.11115
     Eigenvalues ---    0.12090   0.12205   0.12248   0.16000   0.16000
     Eigenvalues ---    0.16000   0.16909   0.22000   0.23828   0.24976
     Eigenvalues ---    0.25000   0.37206   0.43371   0.607021000.00000
     Eigenvalues --- 1000.000001000.000001000.000001000.000001000.00000
     Eigenvalues --- 1000.000001000.000001000.00000
 RFO step:  Lambda=-9.26134478D-03 EMin= 2.30000000D-03
 Linear search not attempted -- first point.
 Iteration  1 RMS(Cart)=  0.04361188 RMS(Int)=  0.00035082
 Iteration  2 RMS(Cart)=  0.00047512 RMS(Int)=  0.00008602
 Iteration  3 RMS(Cart)=  0.00000015 RMS(Int)=  0.00008602
 Variable       Old X    -DE/DX   Delta X   Delta X   Delta X     New X
                                 (Linear)    (Quad)   (Total)
    R1        2.50389   0.04832   0.00000   0.07840   0.07840   2.58229
    R2        3.64507   0.01078   0.00000   0.06043   0.06043   3.70550
    R3        2.02237   0.01670   0.00000   0.04380   0.04380   2.06617
    R4        4.15357   0.00332   0.00000   0.02755   0.02755   4.18111
    R5        2.67215   0.03343   0.00000   0.07547   0.07547   2.74762
    R6        3.25550   0.00476   0.00000   0.03627   0.03627   3.29176
    R7        3.26315   0.00423   0.00000   0.03247   0.03247   3.29562
    R8        3.25265   0.00432   0.00000   0.03283   0.03283   3.28548
    R9        5.29363  -0.00643   0.00000  -0.08160  -0.08160   5.21202
    A1        2.13592   0.00194   0.00000   0.00849   0.00848   2.14440
    A2        2.16557  -0.00217   0.00000  -0.01133  -0.01134   2.15423
    A3        1.98168   0.00023   0.00000   0.00288   0.00287   1.98455
    A4        2.35452  -0.00365   0.00000  -0.01395  -0.01396   2.34056
    A5        1.98733   0.00302   0.00000   0.01180   0.01180   1.99913
    A6        1.93925   0.00064   0.00000   0.00260   0.00259   1.94184
    A7        1.76048   0.00250   0.00000   0.03189   0.03171   1.79219
    A8        1.83465  -0.00010   0.00000   0.00496   0.00483   1.83948
    A9        1.95145  -0.00009   0.00000   0.00891   0.00860   1.96005
   A10        1.78051   0.00301   0.00000   0.01662   0.01651   1.79703
   A11        2.00826  -0.00204   0.00000  -0.01276  -0.01283   1.99543
   A12        2.05857  -0.00308   0.00000  -0.01890  -0.01897   2.03960
    D1       -0.05710   0.00022   0.00000   0.00753   0.00754  -0.04956
    D2       -3.12110   0.00003   0.00000  -0.00118  -0.00119  -3.12229
    D3        3.07791   0.00044   0.00000   0.01291   0.01292   3.09083
    D4        0.01391   0.00025   0.00000   0.00420   0.00419   0.01810
    D5        0.73539  -0.00060   0.00000  -0.01980  -0.01992   0.71547
    D6        2.76596   0.00026   0.00000   0.00431   0.00444   2.77040
    D7       -2.48226  -0.00033   0.00000  -0.01094  -0.01108  -2.49334
    D8       -0.45169   0.00052   0.00000   0.01317   0.01329  -0.43840
    D9        3.12454  -0.00140   0.00000  -0.01576  -0.01575   3.10879
   D10        1.02055  -0.00122   0.00000  -0.01179  -0.01186   1.00869
   D11       -1.26373   0.00140   0.00000   0.02738   0.02745  -1.23628
   D12        2.91547   0.00158   0.00000   0.03135   0.03134   2.94681
         Item               Value     Threshold  Converged?
 Maximum Force            0.048317     0.000450     NO 
 RMS     Force            0.011049     0.000300     NO 
 Maximum Displacement     0.105934     0.001800     NO 
 RMS     Displacement     0.043742     0.001200     NO 
 Predicted change in Energy=-4.788662D-03
 GradGradGradGradGradGradGradGradGradGradGradGradGradGradGradGradGradGrad

                          Input orientation:                          
 ---------------------------------------------------------------------
 Center     Atomic      Atomic             Coordinates (Angstroms)
 Number     Number       Type             X           Y           Z
 ---------------------------------------------------------------------
      1          6           0        2.312242    2.964428   -0.050851
      2          6           0        1.725637    1.737859    0.085971
      3          1           0       -1.290168    2.125748   -0.527833
      4          1           0       -1.965673   -2.344843   -0.183722
      5          1           0        0.698166   -2.666302    0.290622
      6         50           0       -0.343841    1.054679    0.467948
      7         50           0       -0.430274   -1.553620   -0.424428
      8         35           0        1.296639    4.641078   -0.001867
      9          1           0        3.386697    3.105397   -0.196236
     10          9           0        2.651837    0.617734    0.046858
 ---------------------------------------------------------------------
                    Distance matrix (angstroms):
                    1          2          3          4          5
     1  C    0.000000
     2  C    1.366491   0.000000
     3  H    3.729377   3.101982   0.000000
     4  H    6.819573   5.510623   4.534414   0.000000
     5  H    5.867450   4.527054   5.252341   2.724770   0.000000
     6  Sn   3.312260   2.212550   1.741926   3.822534   3.868194
     7  Sn   5.298463   3.967656   3.779929   1.743968   1.738601
     8  Br   1.960868   2.936058   3.646243   7.712253   7.337678
     9  H    1.093372   2.170005   4.789857   7.638922   6.385745
    10  F    2.373151   1.453980   4.259551   5.491031   3.828987
                    6          7          8          9         10
     6  Sn   0.000000
     7  Sn   2.758085   0.000000
     8  Br   3.971669   6.444771   0.000000
     9  H    4.308537   6.027253   2.600853   0.000000
    10  F    3.056521   3.799512   4.245731   2.605299   0.000000
 Stoichiometry    C2H4BrFSn2
 Framework group  C1[X(C2H4BrFSn2)]
 Deg. of freedom    24
 Full point group                 C1      NOp   1
 Largest Abelian subgroup         C1      NOp   1
 Largest concise Abelian subgroup C1      NOp   1
                         Standard orientation:                         
 ---------------------------------------------------------------------
 Center     Atomic      Atomic             Coordinates (Angstroms)
 Number     Number       Type             X           Y           Z
 ---------------------------------------------------------------------
      1          6           0       -2.411183    1.277625    0.018628
      2          6           0       -1.071585    1.077157    0.199149
      3          1           0       -0.448463   -1.763437   -0.880219
      4          1           0        3.979081   -1.096789   -0.163742
      5          1           0        3.412438    1.417389    0.720676
      6         50           0        0.209941   -0.720185    0.349592
      7         50           0        2.756680    0.143046   -0.263581
      8         35           0       -3.679362   -0.192207   -0.257630
      9          1           0       -2.877142    2.266732    0.015316
     10          9           0       -0.302516    2.292401    0.413091
 ---------------------------------------------------------------------
 Rotational constants (GHZ):      2.0727837      0.2380336      0.2195696
 Standard basis: SDD (6D, 10F)
 There are    65 symmetry adapted basis functions of A   symmetry.
 Integral buffers will be    131072 words long.
 Raffenetti 1 integral format.
 Two-electron integral symmetry is turned on.
    65 basis functions,   139 primitive gaussians,    65 cartesian basis functions
    20 alpha electrons       20 beta electrons
       nuclear repulsion energy       131.7434832725 Hartrees.
 NAtoms=   10 NActive=   10 NUniq=   10 SFac= 7.50D-01 NAtFMM=   80 NAOKFM=F Big=F
 One-electron integrals computed using PRISM.
   1 Symmetry operations used in ECPInt.
 ECPInt:  NShTT=     780 NPrTT=    3579 LenC2=     772 LenP2D=    2866.
 LDataN:  DoStor=T MaxTD1= 5 Len=  102
 NBasis=    65 RedAO= T  NBF=    65
 NBsUse=    65 1.00D-06 NBFU=    65
 Initial guess read from the read-write file.
 B after Tr=     0.000000    0.000000    0.000000
         Rot=    1.000000    0.000000    0.000000    0.000000 Ang=   0.00 deg.
 Initial guess orbital symmetries:
       Occupied  (A) (A) (A) (A) (A) (A) (A) (A) (A) (A) (A) (A)
                 (A) (A) (A) (A) (A) (A) (A) (A)
       Virtual   (A) (A) (A) (A) (A) (A) (A) (A) (A) (A) (A) (A)
                 (A) (A) (A) (A) (A) (A) (A) (A) (A) (A) (A) (A)
                 (A) (A) (A) (A) (A) (A) (A) (A) (A) (A) (A) (A)
                 (A) (A) (A) (A) (A) (A) (A) (A) (A)
 Harris functional with IExCor=  205 diagonalized for initial guess.
 ExpMin= 3.61D-02 ExpMax= 9.99D+03 ExpMxC= 1.51D+03 IAcc=3 IRadAn=         0 AccDes= 0.00D+00
 HarFok:  IExCor=  205 AccDes= 0.00D+00 IRadAn=         0 IDoV= 1
 ScaDFX=  1.000000  1.000000  1.000000  1.000000
 Defaulting to unpruned grid for atomic number  50.
 Defaulting to unpruned grid for atomic number  50.
 Defaulting to unpruned grid for atomic number  50.
 Defaulting to unpruned grid for atomic number  50.
 Defaulting to unpruned grid for atomic number  50.
 Defaulting to unpruned grid for atomic number  50.
 Defaulting to unpruned grid for atomic number  50.
 Defaulting to unpruned grid for atomic number  50.
 Defaulting to unpruned grid for atomic number  50.
 Defaulting to unpruned grid for atomic number  50.
 Defaulting to unpruned grid for atomic number  50.
 Defaulting to unpruned grid for atomic number  50.
 Defaulting to unpruned grid for atomic number  50.
 Defaulting to unpruned grid for atomic number  50.
 Defaulting to unpruned grid for atomic number  50.
 Defaulting to unpruned grid for atomic number  50.
 Defaulting to unpruned grid for atomic number  50.
 Defaulting to unpruned grid for atomic number  50.
 Defaulting to unpruned grid for atomic number  50.
 Defaulting to unpruned grid for atomic number  50.
 FoFCou: FMM=F IPFlag=           0 FMFlag=      100000 FMFlg1=           0
         NFxFlg=           0 DoJE=T BraDBF=F KetDBF=T FulRan=T
         Omega=  0.000000  0.000000  1.000000  0.000000  0.000000 ICntrl=     500 IOpCl=  0
         NMat0=    1 NMatS0=    1 NMatT0=    0 NMatD0=    1 NMtDS0=    0 NMtDT0=    0
         I1Cent=           4 NGrid=           0.
 Petite list used in FoFCou.
 Requested convergence on RMS density matrix=1.00D-08 within 128 cycles.
 Requested convergence on MAX density matrix=1.00D-06.
 Requested convergence on             energy=1.00D-06.
 No special actions if energy rises.
 Keep R1 ints in memory in canonical form, NReq=3134234.
 SCF Done:  E(RHF) =  -196.996004114     A.U. after   13 cycles
             Convg  =    0.3032D-08             -V/T =  2.0718
 ExpMin= 3.61D-02 ExpMax= 9.99D+03 ExpMxC= 1.51D+03 IAcc=3 IRadAn=         5 AccDes= 0.00D+00
 HarFok:  IExCor=  205 AccDes= 0.00D+00 IRadAn=         5 IDoV=-2
 ScaDFX=  1.000000  1.000000  1.000000  1.000000
 Defaulting to unpruned grid for atomic number  50.
 Defaulting to unpruned grid for atomic number  50.
 Defaulting to unpruned grid for atomic number  50.
 Defaulting to unpruned grid for atomic number  50.
 Defaulting to unpruned grid for atomic number  50.
 Defaulting to unpruned grid for atomic number  50.
 Defaulting to unpruned grid for atomic number  50.
 Defaulting to unpruned grid for atomic number  50.
 Defaulting to unpruned grid for atomic number  50.
 Defaulting to unpruned grid for atomic number  50.
 Defaulting to unpruned grid for atomic number  50.
 Defaulting to unpruned grid for atomic number  50.
 Defaulting to unpruned grid for atomic number  50.
 Defaulting to unpruned grid for atomic number  50.
 Defaulting to unpruned grid for atomic number  50.
 Defaulting to unpruned grid for atomic number  50.
 Defaulting to unpruned grid for atomic number  50.
 Defaulting to unpruned grid for atomic number  50.
 Defaulting to unpruned grid for atomic number  50.
 Defaulting to unpruned grid for atomic number  50.
 Range of M.O.s used for correlation:     4    65
 NBasis=    65 NAE=    20 NBE=    20 NFC=     3 NFV=     0
 NROrb=     62 NOA=    17 NOB=    17 NVA=    45 NVB=    45
 Fully direct method using O(ONN) memory.
 JobTyp=1 Pass  1:  I=   4 to  20 NPSUse= 20 ParTrn=T ParDer=T DoDerP=T.
 Spin components of T(2) and E(2):
     alpha-alpha T2 =       0.2139751544D-01 E2=     -0.4644305242D-01
     alpha-beta  T2 =       0.1650327745D+00 E2=     -0.3193192580D+00
     beta-beta   T2 =       0.2139751544D-01 E2=     -0.4644305242D-01
 ANorm=    0.1099012195D+01
 E2 =    -0.4122053629D+00 EUMP2 =    -0.19740820947665D+03
          IDoAtm=1111111111
          Differentiating once with respect to electric field.
                with respect to dipole field.
          Differentiating once with respect to nuclear coordinates.
          Keep R1 ints in memory in canonical form, NReq=3102463.
          There are     1 degrees of freedom in the 1st order CPHF.  IDoFFX=0.
 LinEq1:  Iter=  0 NonCon=     1 RMS=9.09D-03 Max=8.90D-02
 AX will form     1 AO Fock derivatives at one time.
 LinEq1:  Iter=  1 NonCon=     1 RMS=3.63D-03 Max=3.32D-02
 LinEq1:  Iter=  2 NonCon=     1 RMS=1.19D-03 Max=1.38D-02
 LinEq1:  Iter=  3 NonCon=     1 RMS=2.97D-04 Max=3.29D-03
 LinEq1:  Iter=  4 NonCon=     1 RMS=9.51D-05 Max=8.26D-04
 LinEq1:  Iter=  5 NonCon=     1 RMS=2.68D-05 Max=1.91D-04
 LinEq1:  Iter=  6 NonCon=     1 RMS=8.85D-06 Max=1.61D-04
 LinEq1:  Iter=  7 NonCon=     1 RMS=3.52D-06 Max=2.88D-05
 LinEq1:  Iter=  8 NonCon=     1 RMS=1.22D-06 Max=8.87D-06
 LinEq1:  Iter=  9 NonCon=     1 RMS=4.28D-07 Max=6.23D-06
 LinEq1:  Iter= 10 NonCon=     1 RMS=8.93D-08 Max=8.29D-07
 LinEq1:  Iter= 11 NonCon=     1 RMS=1.62D-08 Max=1.43D-07
 LinEq1:  Iter= 12 NonCon=     1 RMS=2.67D-09 Max=2.00D-08
 LinEq1:  Iter= 13 NonCon=     1 RMS=4.68D-10 Max=2.70D-09
 LinEq1:  Iter= 14 NonCon=     0 RMS=6.72D-11 Max=4.68D-10
 Linear equations converged to 1.000D-10 1.000D-09 after    14 iterations.
 End of Minotr Frequency-dependent properties file   721 does not exist.
 End of Minotr Frequency-dependent properties file   722 does not exist.
   1 Symmetry operations used in ECPInt.
 ECPInt:  NShTT=     780 NPrTT=    3579 LenC2=     772 LenP2D=    2866.
 LDataN:  DoStor=T MaxTD1= 6 Len=  172
 Calling FoFJK, ICntrl=      2127 FMM=F ISym2X=0 I1Cent= 0 IOpClX= 0 NMat=1 NMatS=1 NMatT=0.
 ***** Axes restored to original set *****
 -------------------------------------------------------------------
 Center     Atomic                   Forces (Hartrees/Bohr)
 Number     Number              X              Y              Z
 -------------------------------------------------------------------
      1        6           0.001781923   -0.000375052   -0.000157775
      2        6          -0.009273262    0.006084800    0.001191995
      3        1           0.000092843    0.000108527    0.001022541
      4        1          -0.000027423    0.000926192   -0.000210251
      5        1           0.000201038    0.001064579   -0.000023059
      6       50           0.001287875   -0.000855581   -0.002356697
      7       50          -0.000282156   -0.000874707    0.000856465
      8       35           0.000413791   -0.002693434    0.000122890
      9        1           0.000154054   -0.000051030   -0.000143399
     10        9           0.005651317   -0.003334293   -0.000302710
 -------------------------------------------------------------------
 Cartesian Forces:  Max     0.009273262 RMS     0.002523755

 GradGradGradGradGradGradGradGradGradGradGradGradGradGradGradGradGradGrad
 Berny optimization.
 Using GEDIIS/GDIIS optimizer.
 Internal  Forces:  Max     0.006176782 RMS     0.001710212
 Search for a local minimum.
 Step number   2 out of a maximum of   43
 All quantities printed in internal units (Hartrees-Bohrs-Radians)
 Mixed Optimization -- RFO/linear search
 Update second derivatives using D2CorX and points    1    2
 DE= -4.62D-03 DEPred=-4.79D-03 R= 9.66D-01
 SS=  1.41D+00  RLast= 1.84D-01 DXNew= 5.0454D-01 5.5163D-01
 Trust test= 9.66D-01 RLast= 1.84D-01 DXMaxT set to 5.05D-01
 Use linear search instead of GDIIS.
     Eigenvalues ---    0.00230   0.00230   0.01700   0.03080   0.03081
     Eigenvalues ---    0.03875   0.04351   0.06870   0.10828   0.11200
     Eigenvalues ---    0.12113   0.12226   0.12400   0.15706   0.16000
     Eigenvalues ---    0.16004   0.17556   0.22153   0.23728   0.24886
     Eigenvalues ---    0.25379   0.37196   0.39961   0.639441000.00000
     Eigenvalues --- 1000.000001000.000001000.000001000.000001000.00000
     Eigenvalues --- 1000.000001000.000001000.00000
 RFO step:  Lambda=-4.82692874D-04 EMin= 2.29927815D-03
 Quartic linear search produced a step of  0.03255.
 Iteration  1 RMS(Cart)=  0.02862092 RMS(Int)=  0.00039598
 Iteration  2 RMS(Cart)=  0.00040002 RMS(Int)=  0.00006810
 Iteration  3 RMS(Cart)=  0.00000003 RMS(Int)=  0.00006810
 Variable       Old X    -DE/DX   Delta X   Delta X   Delta X     New X
                                 (Linear)    (Quad)   (Total)
    R1        2.58229  -0.00177   0.00255  -0.00175   0.00080   2.58309
    R2        3.70550  -0.00251   0.00197  -0.01420  -0.01224   3.69327
    R3        2.06617   0.00016   0.00143   0.00118   0.00261   2.06878
    R4        4.18111  -0.00143   0.00090  -0.01265  -0.01175   4.16936
    R5        2.74762   0.00618   0.00246   0.01593   0.01839   2.76601
    R6        3.29176  -0.00057   0.00118  -0.00408  -0.00290   3.28886
    R7        3.29562  -0.00043   0.00106  -0.00298  -0.00193   3.29369
    R8        3.28548  -0.00056   0.00107  -0.00407  -0.00300   3.28248
    R9        5.21202  -0.00125  -0.00266  -0.02033  -0.02298   5.18904
    A1        2.14440  -0.00257   0.00028  -0.01186  -0.01159   2.13281
    A2        2.15423   0.00121  -0.00037   0.00536   0.00499   2.15922
    A3        1.98455   0.00135   0.00009   0.00651   0.00660   1.99115
    A4        2.34056   0.00145  -0.00045   0.00567   0.00522   2.34577
    A5        1.99913  -0.00378   0.00038  -0.01546  -0.01508   1.98405
    A6        1.94184   0.00233   0.00008   0.00961   0.00970   1.95153
    A7        1.79219  -0.00015   0.00103   0.00974   0.01053   1.80272
    A8        1.83948   0.00129   0.00016   0.00949   0.00951   1.84898
    A9        1.96005   0.00082   0.00028   0.01728   0.01737   1.97742
   A10        1.79703   0.00177   0.00054   0.01191   0.01241   1.80944
   A11        1.99543  -0.00120  -0.00042  -0.00783  -0.00827   1.98716
   A12        2.03960  -0.00172  -0.00062  -0.01133  -0.01196   2.02764
    D1       -0.04956   0.00008   0.00025   0.00062   0.00087  -0.04868
    D2       -3.12229   0.00006  -0.00004   0.00403   0.00399  -3.11830
    D3        3.09083   0.00012   0.00042   0.00210   0.00253   3.09336
    D4        0.01810   0.00010   0.00014   0.00551   0.00564   0.02374
    D5        0.71547  -0.00068  -0.00065  -0.04148  -0.04217   0.67331
    D6        2.77040   0.00068   0.00014  -0.01431  -0.01411   2.75629
    D7       -2.49334  -0.00084  -0.00036  -0.04553  -0.04595  -2.53929
    D8       -0.43840   0.00053   0.00043  -0.01836  -0.01789  -0.45630
    D9        3.10879  -0.00035  -0.00051   0.02150   0.02092   3.12972
   D10        1.00869  -0.00038  -0.00039   0.02091   0.02043   1.02912
   D11       -1.23628   0.00055   0.00089   0.04592   0.04691  -1.18937
   D12        2.94681   0.00053   0.00102   0.04533   0.04642   2.99323
         Item               Value     Threshold  Converged?
 Maximum Force            0.006177     0.000450     NO 
 RMS     Force            0.001710     0.000300     NO 
 Maximum Displacement     0.080006     0.001800     NO 
 RMS     Displacement     0.028628     0.001200     NO 
 Predicted change in Energy=-2.451370D-04
 GradGradGradGradGradGradGradGradGradGradGradGradGradGradGradGradGradGrad

                          Input orientation:                          
 ---------------------------------------------------------------------
 Center     Atomic      Atomic             Coordinates (Angstroms)
 Number     Number       Type             X           Y           Z
 ---------------------------------------------------------------------
      1          6           0        2.312090    2.962760   -0.057769
      2          6           0        1.728916    1.734968    0.086765
      3          1           0       -1.300752    2.129530   -0.485496
      4          1           0       -1.975620   -2.320553   -0.214894
      5          1           0        0.687623   -2.663281    0.310513
      6         50           0       -0.330744    1.038770    0.462282
      7         50           0       -0.424800   -1.555473   -0.432785
      8         35           0        1.274795    4.618834   -0.024733
      9          1           0        3.387124    3.111747   -0.201256
     10          9           0        2.682628    0.624856    0.063837
 ---------------------------------------------------------------------
                    Distance matrix (angstroms):
                    1          2          3          4          5
     1  C    0.000000
     2  C    1.366915   0.000000
     3  H    3.732272   3.108383   0.000000
     4  H    6.806067   5.501076   4.509092   0.000000
     5  H    5.867441   4.525367   5.249600   2.736125   0.000000
     6  Sn   3.310100   2.206332   1.740389   3.801215   3.842563
     7  Sn   5.295813   3.966791   3.788049   1.742948   1.737013
     8  Br   1.954393   2.921530   3.611423   7.665276   7.313437
     9  H    1.094752   2.174427   4.798096   7.633420   6.395324
    10  F    2.370208   1.463709   4.293381   5.518369   3.853925
                    6          7          8          9         10
     6  Sn   0.000000
     7  Sn   2.745922   0.000000
     8  Br   3.953707   6.416946   0.000000
     9  H    4.308139   6.030532   2.600846   0.000000
    10  F    3.067653   3.828391   4.235764   2.598311   0.000000
 Stoichiometry    C2H4BrFSn2
 Framework group  C1[X(C2H4BrFSn2)]
 Deg. of freedom    24
 Full point group                 C1      NOp   1
 Largest Abelian subgroup         C1      NOp   1
 Largest concise Abelian subgroup C1      NOp   1
                         Standard orientation:                         
 ---------------------------------------------------------------------
 Center     Atomic      Atomic             Coordinates (Angstroms)
 Number     Number       Type             X           Y           Z
 ---------------------------------------------------------------------
      1          6           0       -2.416151    1.276204    0.009702
      2          6           0       -1.076864    1.077925    0.197990
      3          1           0       -0.464571   -1.796929   -0.813127
      4          1           0        3.949774   -1.123560   -0.186995
      5          1           0        3.406426    1.398787    0.723456
      6         50           0        0.211686   -0.705528    0.361809
      7         50           0        2.747821    0.135868   -0.270773
      8         35           0       -3.660003   -0.206105   -0.264607
      9          1           0       -2.888426    2.263773   -0.002355
     10          9           0       -0.324486    2.314422    0.415814
 ---------------------------------------------------------------------
 Rotational constants (GHZ):      2.0604924      0.2396915      0.2211683
 Standard basis: SDD (6D, 10F)
 There are    65 symmetry adapted basis functions of A   symmetry.
 Integral buffers will be    131072 words long.
 Raffenetti 1 integral format.
 Two-electron integral symmetry is turned on.
    65 basis functions,   139 primitive gaussians,    65 cartesian basis functions
    20 alpha electrons       20 beta electrons
       nuclear repulsion energy       131.7167058672 Hartrees.
 NAtoms=   10 NActive=   10 NUniq=   10 SFac= 7.50D-01 NAtFMM=   80 NAOKFM=F Big=F
 One-electron integrals computed using PRISM.
   1 Symmetry operations used in ECPInt.
 ECPInt:  NShTT=     780 NPrTT=    3579 LenC2=     772 LenP2D=    2865.
 LDataN:  DoStor=T MaxTD1= 5 Len=  102
 NBasis=    65 RedAO= T  NBF=    65
 NBsUse=    65 1.00D-06 NBFU=    65
 Initial guess read from the read-write file.
 B after Tr=     0.000000    0.000000    0.000000
         Rot=    1.000000    0.000000    0.000000    0.000000 Ang=   0.00 deg.
 Initial guess orbital symmetries:
       Occupied  (A) (A) (A) (A) (A) (A) (A) (A) (A) (A) (A) (A)
                 (A) (A) (A) (A) (A) (A) (A) (A)
       Virtual   (A) (A) (A) (A) (A) (A) (A) (A) (A) (A) (A) (A)
                 (A) (A) (A) (A) (A) (A) (A) (A) (A) (A) (A) (A)
                 (A) (A) (A) (A) (A) (A) (A) (A) (A) (A) (A) (A)
                 (A) (A) (A) (A) (A) (A) (A) (A) (A)
 Harris functional with IExCor=  205 diagonalized for initial guess.
 ExpMin= 3.61D-02 ExpMax= 9.99D+03 ExpMxC= 1.51D+03 IAcc=3 IRadAn=         0 AccDes= 0.00D+00
 HarFok:  IExCor=  205 AccDes= 0.00D+00 IRadAn=         0 IDoV= 1
 ScaDFX=  1.000000  1.000000  1.000000  1.000000
 Defaulting to unpruned grid for atomic number  50.
 Defaulting to unpruned grid for atomic number  50.
 Defaulting to unpruned grid for atomic number  50.
 Defaulting to unpruned grid for atomic number  50.
 Defaulting to unpruned grid for atomic number  50.
 Defaulting to unpruned grid for atomic number  50.
 Defaulting to unpruned grid for atomic number  50.
 Defaulting to unpruned grid for atomic number  50.
 Defaulting to unpruned grid for atomic number  50.
 Defaulting to unpruned grid for atomic number  50.
 Defaulting to unpruned grid for atomic number  50.
 Defaulting to unpruned grid for atomic number  50.
 Defaulting to unpruned grid for atomic number  50.
 Defaulting to unpruned grid for atomic number  50.
 Defaulting to unpruned grid for atomic number  50.
 Defaulting to unpruned grid for atomic number  50.
 Defaulting to unpruned grid for atomic number  50.
 Defaulting to unpruned grid for atomic number  50.
 Defaulting to unpruned grid for atomic number  50.
 Defaulting to unpruned grid for atomic number  50.
 FoFCou: FMM=F IPFlag=           0 FMFlag=      100000 FMFlg1=           0
         NFxFlg=           0 DoJE=T BraDBF=F KetDBF=T FulRan=T
         Omega=  0.000000  0.000000  1.000000  0.000000  0.000000 ICntrl=     500 IOpCl=  0
         NMat0=    1 NMatS0=    1 NMatT0=    0 NMatD0=    1 NMtDS0=    0 NMtDT0=    0
         I1Cent=           4 NGrid=           0.
 Petite list used in FoFCou.
 Requested convergence on RMS density matrix=1.00D-08 within 128 cycles.
 Requested convergence on MAX density matrix=1.00D-06.
 Requested convergence on             energy=1.00D-06.
 No special actions if energy rises.
 Keep R1 ints in memory in canonical form, NReq=3134234.
 SCF Done:  E(RHF) =  -196.995596929     A.U. after   12 cycles
             Convg  =    0.8260D-08             -V/T =  2.0718
 ExpMin= 3.61D-02 ExpMax= 9.99D+03 ExpMxC= 1.51D+03 IAcc=3 IRadAn=         5 AccDes= 0.00D+00
 HarFok:  IExCor=  205 AccDes= 0.00D+00 IRadAn=         5 IDoV=-2
 ScaDFX=  1.000000  1.000000  1.000000  1.000000
 Defaulting to unpruned grid for atomic number  50.
 Defaulting to unpruned grid for atomic number  50.
 Defaulting to unpruned grid for atomic number  50.
 Defaulting to unpruned grid for atomic number  50.
 Defaulting to unpruned grid for atomic number  50.
 Defaulting to unpruned grid for atomic number  50.
 Defaulting to unpruned grid for atomic number  50.
 Defaulting to unpruned grid for atomic number  50.
 Defaulting to unpruned grid for atomic number  50.
 Defaulting to unpruned grid for atomic number  50.
 Defaulting to unpruned grid for atomic number  50.
 Defaulting to unpruned grid for atomic number  50.
 Defaulting to unpruned grid for atomic number  50.
 Defaulting to unpruned grid for atomic number  50.
 Defaulting to unpruned grid for atomic number  50.
 Defaulting to unpruned grid for atomic number  50.
 Defaulting to unpruned grid for atomic number  50.
 Defaulting to unpruned grid for atomic number  50.
 Defaulting to unpruned grid for atomic number  50.
 Defaulting to unpruned grid for atomic number  50.
 Range of M.O.s used for correlation:     4    65
 NBasis=    65 NAE=    20 NBE=    20 NFC=     3 NFV=     0
 NROrb=     62 NOA=    17 NOB=    17 NVA=    45 NVB=    45
 Fully direct method using O(ONN) memory.
 JobTyp=1 Pass  1:  I=   4 to  20 NPSUse= 20 ParTrn=T ParDer=T DoDerP=T.
 Spin components of T(2) and E(2):
     alpha-alpha T2 =       0.2146787510D-01 E2=     -0.4654947988D-01
     alpha-beta  T2 =       0.1655545531D+00 E2=     -0.3198264535D+00
     beta-beta   T2 =       0.2146787510D-01 E2=     -0.4654947988D-01
 ANorm=    0.1099313560D+01
 E2 =    -0.4129254132D+00 EUMP2 =    -0.19740852234270D+03
          IDoAtm=1111111111
          Differentiating once with respect to electric field.
                with respect to dipole field.
          Differentiating once with respect to nuclear coordinates.
          Keep R1 ints in memory in canonical form, NReq=3102463.
          There are     1 degrees of freedom in the 1st order CPHF.  IDoFFX=0.
 LinEq1:  Iter=  0 NonCon=     1 RMS=9.06D-03 Max=8.80D-02
 AX will form     1 AO Fock derivatives at one time.
 LinEq1:  Iter=  1 NonCon=     1 RMS=3.64D-03 Max=3.35D-02
 LinEq1:  Iter=  2 NonCon=     1 RMS=1.19D-03 Max=1.41D-02
 LinEq1:  Iter=  3 NonCon=     1 RMS=2.94D-04 Max=3.08D-03
 LinEq1:  Iter=  4 NonCon=     1 RMS=9.47D-05 Max=9.37D-04
 LinEq1:  Iter=  5 NonCon=     1 RMS=2.52D-05 Max=1.55D-04
 LinEq1:  Iter=  6 NonCon=     1 RMS=7.76D-06 Max=1.48D-04
 LinEq1:  Iter=  7 NonCon=     1 RMS=2.55D-06 Max=2.22D-05
 LinEq1:  Iter=  8 NonCon=     1 RMS=9.80D-07 Max=5.77D-06
 LinEq1:  Iter=  9 NonCon=     1 RMS=3.95D-07 Max=5.34D-06
 LinEq1:  Iter= 10 NonCon=     1 RMS=8.80D-08 Max=8.10D-07
 LinEq1:  Iter= 11 NonCon=     1 RMS=1.64D-08 Max=1.41D-07
 LinEq1:  Iter= 12 NonCon=     1 RMS=2.69D-09 Max=2.01D-08
 LinEq1:  Iter= 13 NonCon=     1 RMS=4.68D-10 Max=2.77D-09
 LinEq1:  Iter= 14 NonCon=     0 RMS=6.81D-11 Max=4.61D-10
 Linear equations converged to 1.000D-10 1.000D-09 after    14 iterations.
 End of Minotr Frequency-dependent properties file   721 does not exist.
 End of Minotr Frequency-dependent properties file   722 does not exist.
   1 Symmetry operations used in ECPInt.
 ECPInt:  NShTT=     780 NPrTT=    3579 LenC2=     772 LenP2D=    2865.
 LDataN:  DoStor=T MaxTD1= 6 Len=  172
 Calling FoFJK, ICntrl=      2127 FMM=F ISym2X=0 I1Cent= 0 IOpClX= 0 NMat=1 NMatS=1 NMatT=0.
 ***** Axes restored to original set *****
 -------------------------------------------------------------------
 Center     Atomic                   Forces (Hartrees/Bohr)
 Number     Number              X              Y              Z
 -------------------------------------------------------------------
      1        6           0.001470251   -0.001225283   -0.000199071
      2        6          -0.002767699    0.003217717    0.000795288
      3        1           0.000462295    0.000041074    0.000604708
      4        1           0.000074843    0.000605801    0.000054456
      5        1           0.000153459    0.000717864   -0.000145811
      6       50           0.000639301   -0.000656380   -0.001446584
      7       50          -0.000394244   -0.001244554    0.000365213
      8       35          -0.000175917    0.000101516    0.000017679
      9        1          -0.000978044   -0.000489946    0.000146337
     10        9           0.001515754   -0.001067809   -0.000192215
 -------------------------------------------------------------------
 Cartesian Forces:  Max     0.003217717 RMS     0.001054670

 GradGradGradGradGradGradGradGradGradGradGradGradGradGradGradGradGradGrad
 Berny optimization.
 Using GEDIIS/GDIIS optimizer.
 Internal  Forces:  Max     0.001800487 RMS     0.000782402
 Search for a local minimum.
 Step number   3 out of a maximum of   43
 All quantities printed in internal units (Hartrees-Bohrs-Radians)
 Mixed Optimization -- En-DIIS/RFO-DIIS
 Update second derivatives using D2CorX and points    1    2    3
 DE= -3.13D-04 DEPred=-2.45D-04 R= 1.28D+00
 SS=  1.41D+00  RLast= 1.11D-01 DXNew= 8.4853D-01 3.3240D-01
 Trust test= 1.28D+00 RLast= 1.11D-01 DXMaxT set to 5.05D-01
 Use linear search instead of GDIIS.
     Eigenvalues ---    0.00228   0.00278   0.01692   0.03014   0.03081
     Eigenvalues ---    0.03150   0.03982   0.06717   0.10442   0.11062
     Eigenvalues ---    0.12113   0.12222   0.12290   0.13795   0.16001
     Eigenvalues ---    0.16033   0.17885   0.21792   0.23108   0.24429
     Eigenvalues ---    0.26981   0.37642   0.39660   0.641581000.00000
     Eigenvalues --- 1000.000001000.000001000.000001000.000001000.00000
     Eigenvalues --- 1000.000001000.000001000.00000
 RFO step:  Lambda=-2.37893383D-04 EMin= 2.27581456D-03
 Quartic linear search produced a step of  0.39446.
 Iteration  1 RMS(Cart)=  0.05823766 RMS(Int)=  0.00190746
 Iteration  2 RMS(Cart)=  0.00215099 RMS(Int)=  0.00016712
 Iteration  3 RMS(Cart)=  0.00000180 RMS(Int)=  0.00016712
 Iteration  4 RMS(Cart)=  0.00000000 RMS(Int)=  0.00016712
 Variable       Old X    -DE/DX   Delta X   Delta X   Delta X     New X
                                 (Linear)    (Quad)   (Total)
    R1        2.58309  -0.00131   0.00032   0.00018   0.00049   2.58359
    R2        3.69327   0.00018  -0.00483   0.00281  -0.00201   3.69125
    R3        2.06878  -0.00105   0.00103  -0.00192  -0.00089   2.06789
    R4        4.16936  -0.00080  -0.00464  -0.00995  -0.01459   4.15478
    R5        2.76601   0.00180   0.00725   0.01052   0.01778   2.78379
    R6        3.28886  -0.00056  -0.00115  -0.00515  -0.00630   3.28256
    R7        3.29369  -0.00033  -0.00076  -0.00257  -0.00333   3.29036
    R8        3.28248  -0.00042  -0.00118  -0.00370  -0.00488   3.27760
    R9        5.18904  -0.00016  -0.00907  -0.00882  -0.01788   5.17116
    A1        2.13281   0.00001  -0.00457  -0.00071  -0.00528   2.12753
    A2        2.15922  -0.00037   0.00197  -0.00317  -0.00120   2.15802
    A3        1.99115   0.00036   0.00260   0.00388   0.00648   1.99764
    A4        2.34577   0.00152   0.00206   0.00854   0.01059   2.35636
    A5        1.98405  -0.00141  -0.00595  -0.00865  -0.01461   1.96944
    A6        1.95153  -0.00010   0.00382   0.00058   0.00439   1.95593
    A7        1.80272  -0.00064   0.00416   0.00519   0.00872   1.81144
    A8        1.84898   0.00170   0.00375   0.01425   0.01765   1.86663
    A9        1.97742   0.00053   0.00685   0.01807   0.02451   2.00193
   A10        1.80944   0.00111   0.00489   0.01047   0.01525   1.82469
   A11        1.98716  -0.00099  -0.00326  -0.01051  -0.01384   1.97332
   A12        2.02764  -0.00100  -0.00472  -0.01116  -0.01595   2.01169
    D1       -0.04868   0.00007   0.00034   0.00492   0.00525  -0.04343
    D2       -3.11830  -0.00006   0.00157  -0.00397  -0.00239  -3.12069
    D3        3.09336   0.00007   0.00100   0.00541   0.00639   3.09975
    D4        0.02374  -0.00006   0.00223  -0.00348  -0.00124   0.02250
    D5        0.67331  -0.00052  -0.01663   0.00202  -0.01470   0.65861
    D6        2.75629   0.00052  -0.00556   0.03090   0.02540   2.78169
    D7       -2.53929  -0.00044  -0.01813   0.01051  -0.00768  -2.54697
    D8       -0.45630   0.00060  -0.00706   0.03939   0.03242  -0.42388
    D9        3.12972  -0.00046   0.00825  -0.10707  -0.09900   3.03072
   D10        1.02912  -0.00037   0.00806  -0.10379  -0.09600   0.93313
   D11       -1.18937   0.00003   0.01850  -0.08374  -0.06497  -1.25434
   D12        2.99323   0.00012   0.01831  -0.08046  -0.06197   2.93126
         Item               Value     Threshold  Converged?
 Maximum Force            0.001800     0.000450     NO 
 RMS     Force            0.000782     0.000300     NO 
 Maximum Displacement     0.209873     0.001800     NO 
 RMS     Displacement     0.058149     0.001200     NO 
 Predicted change in Energy=-1.518292D-04
 GradGradGradGradGradGradGradGradGradGradGradGradGradGradGradGradGradGrad

                          Input orientation:                          
 ---------------------------------------------------------------------
 Center     Atomic      Atomic             Coordinates (Angstroms)
 Number     Number       Type             X           Y           Z
 ---------------------------------------------------------------------
      1          6           0        2.313983    2.955350   -0.038030
      2          6           0        1.714010    1.732727    0.081955
      3          1           0       -1.306698    2.143294   -0.533228
      4          1           0       -1.975068   -2.332067   -0.103834
      5          1           0        0.735810   -2.617501    0.252118
      6         50           0       -0.347041    1.036640    0.400442
      7         50           0       -0.450917   -1.563273   -0.446829
      8         35           0        1.287071    4.616644   -0.005830
      9          1           0        3.392822    3.091923   -0.160131
     10          9           0        2.677289    0.618422    0.059831
 ---------------------------------------------------------------------
                    Distance matrix (angstroms):
                    1          2          3          4          5
     1  C    0.000000
     2  C    1.367176   0.000000
     3  H    3.743526   3.109934   0.000000
     4  H    6.808603   5.492391   4.545322   0.000000
     5  H    5.799266   4.462098   5.239635   2.749006   0.000000
     6  Sn   3.309797   2.198613   1.737057   3.775308   3.814094
     7  Sn   5.313167   3.978710   3.805058   1.741185   1.734429
     8  Br   1.953327   2.916670   3.622602   7.676962   7.259703
     9  H    1.094282   2.173575   4.808802   7.631322   6.310879
    10  F    2.367023   1.473116   4.306866   5.511497   3.778560
                    6          7          8          9         10
     6  Sn   0.000000
     7  Sn   2.736459   0.000000
     8  Br   3.956237   6.434785   0.000000
     9  H    4.304068   6.043788   2.604375   0.000000
    10  F    3.072049   3.847358   4.233532   2.584294   0.000000
 Stoichiometry    C2H4BrFSn2
 Framework group  C1[X(C2H4BrFSn2)]
 Deg. of freedom    24
 Full point group                 C1      NOp   1
 Largest Abelian subgroup         C1      NOp   1
 Largest concise Abelian subgroup C1      NOp   1
                         Standard orientation:                         
 ---------------------------------------------------------------------
 Center     Atomic      Atomic             Coordinates (Angstroms)
 Number     Number       Type             X           Y           Z
 ---------------------------------------------------------------------
      1          6           0       -2.425448    1.272363    0.005670
      2          6           0       -1.084484    1.070852    0.179967
      3          1           0       -0.467968   -1.814148   -0.804091
      4          1           0        3.951571   -1.113125   -0.006473
      5          1           0        3.331493    1.477033    0.674421
      6         50           0        0.215075   -0.695695    0.336031
      7         50           0        2.756787    0.129123   -0.253531
      8         35           0       -3.668857   -0.213555   -0.242256
      9          1           0       -2.893002    2.261618   -0.009155
     10          9           0       -0.338401    2.325818    0.376159
 ---------------------------------------------------------------------
 Rotational constants (GHZ):      2.1078208      0.2389322      0.2201215
 Standard basis: SDD (6D, 10F)
 There are    65 symmetry adapted basis functions of A   symmetry.
 Integral buffers will be    131072 words long.
 Raffenetti 1 integral format.
 Two-electron integral symmetry is turned on.
    65 basis functions,   139 primitive gaussians,    65 cartesian basis functions
    20 alpha electrons       20 beta electrons
       nuclear repulsion energy       131.6558592561 Hartrees.
 NAtoms=   10 NActive=   10 NUniq=   10 SFac= 7.50D-01 NAtFMM=   80 NAOKFM=F Big=F
 One-electron integrals computed using PRISM.
   1 Symmetry operations used in ECPInt.
 ECPInt:  NShTT=     780 NPrTT=    3579 LenC2=     772 LenP2D=    2864.
 LDataN:  DoStor=T MaxTD1= 5 Len=  102
 NBasis=    65 RedAO= T  NBF=    65
 NBsUse=    65 1.00D-06 NBFU=    65
 Initial guess read from the read-write file.
 B after Tr=     0.000000    0.000000    0.000000
         Rot=    1.000000    0.000000    0.000000    0.000000 Ang=   0.00 deg.
 Initial guess orbital symmetries:
       Occupied  (A) (A) (A) (A) (A) (A) (A) (A) (A) (A) (A) (A)
                 (A) (A) (A) (A) (A) (A) (A) (A)
       Virtual   (A) (A) (A) (A) (A) (A) (A) (A) (A) (A) (A) (A)
                 (A) (A) (A) (A) (A) (A) (A) (A) (A) (A) (A) (A)
                 (A) (A) (A) (A) (A) (A) (A) (A) (A) (A) (A) (A)
                 (A) (A) (A) (A) (A) (A) (A) (A) (A)
 Harris functional with IExCor=  205 diagonalized for initial guess.
 ExpMin= 3.61D-02 ExpMax= 9.99D+03 ExpMxC= 1.51D+03 IAcc=3 IRadAn=         0 AccDes= 0.00D+00
 HarFok:  IExCor=  205 AccDes= 0.00D+00 IRadAn=         0 IDoV= 1
 ScaDFX=  1.000000  1.000000  1.000000  1.000000
 Defaulting to unpruned grid for atomic number  50.
 Defaulting to unpruned grid for atomic number  50.
 Defaulting to unpruned grid for atomic number  50.
 Defaulting to unpruned grid for atomic number  50.
 Defaulting to unpruned grid for atomic number  50.
 Defaulting to unpruned grid for atomic number  50.
 Defaulting to unpruned grid for atomic number  50.
 Defaulting to unpruned grid for atomic number  50.
 Defaulting to unpruned grid for atomic number  50.
 Defaulting to unpruned grid for atomic number  50.
 Defaulting to unpruned grid for atomic number  50.
 Defaulting to unpruned grid for atomic number  50.
 Defaulting to unpruned grid for atomic number  50.
 Defaulting to unpruned grid for atomic number  50.
 Defaulting to unpruned grid for atomic number  50.
 Defaulting to unpruned grid for atomic number  50.
 Defaulting to unpruned grid for atomic number  50.
 Defaulting to unpruned grid for atomic number  50.
 Defaulting to unpruned grid for atomic number  50.
 Defaulting to unpruned grid for atomic number  50.
 FoFCou: FMM=F IPFlag=           0 FMFlag=      100000 FMFlg1=           0
         NFxFlg=           0 DoJE=T BraDBF=F KetDBF=T FulRan=T
         Omega=  0.000000  0.000000  1.000000  0.000000  0.000000 ICntrl=     500 IOpCl=  0
         NMat0=    1 NMatS0=    1 NMatT0=    0 NMatD0=    1 NMtDS0=    0 NMtDT0=    0
         I1Cent=           4 NGrid=           0.
 Petite list used in FoFCou.
 Requested convergence on RMS density matrix=1.00D-08 within 128 cycles.
 Requested convergence on MAX density matrix=1.00D-06.
 Requested convergence on             energy=1.00D-06.
 No special actions if energy rises.
 Keep R1 ints in memory in canonical form, NReq=3134234.
 SCF Done:  E(RHF) =  -196.994981604     A.U. after   13 cycles
             Convg  =    0.2240D-08             -V/T =  2.0718
 ExpMin= 3.61D-02 ExpMax= 9.99D+03 ExpMxC= 1.51D+03 IAcc=3 IRadAn=         5 AccDes= 0.00D+00
 HarFok:  IExCor=  205 AccDes= 0.00D+00 IRadAn=         5 IDoV=-2
 ScaDFX=  1.000000  1.000000  1.000000  1.000000
 Defaulting to unpruned grid for atomic number  50.
 Defaulting to unpruned grid for atomic number  50.
 Defaulting to unpruned grid for atomic number  50.
 Defaulting to unpruned grid for atomic number  50.
 Defaulting to unpruned grid for atomic number  50.
 Defaulting to unpruned grid for atomic number  50.
 Defaulting to unpruned grid for atomic number  50.
 Defaulting to unpruned grid for atomic number  50.
 Defaulting to unpruned grid for atomic number  50.
 Defaulting to unpruned grid for atomic number  50.
 Defaulting to unpruned grid for atomic number  50.
 Defaulting to unpruned grid for atomic number  50.
 Defaulting to unpruned grid for atomic number  50.
 Defaulting to unpruned grid for atomic number  50.
 Defaulting to unpruned grid for atomic number  50.
 Defaulting to unpruned grid for atomic number  50.
 Defaulting to unpruned grid for atomic number  50.
 Defaulting to unpruned grid for atomic number  50.
 Defaulting to unpruned grid for atomic number  50.
 Defaulting to unpruned grid for atomic number  50.
 Range of M.O.s used for correlation:     4    65
 NBasis=    65 NAE=    20 NBE=    20 NFC=     3 NFV=     0
 NROrb=     62 NOA=    17 NOB=    17 NVA=    45 NVB=    45
 Fully direct method using O(ONN) memory.
 JobTyp=1 Pass  1:  I=   4 to  20 NPSUse= 20 ParTrn=T ParDer=T DoDerP=T.
 Spin components of T(2) and E(2):
     alpha-alpha T2 =       0.2152976257D-01 E2=     -0.4663564010D-01
     alpha-beta  T2 =       0.1661466327D+00 E2=     -0.3203213541D+00
     beta-beta   T2 =       0.2152976257D-01 E2=     -0.4663564010D-01
 ANorm=    0.1099639103D+01
 E2 =    -0.4135926343D+00 EUMP2 =    -0.19740857423862D+03
          IDoAtm=1111111111
          Differentiating once with respect to electric field.
                with respect to dipole field.
          Differentiating once with respect to nuclear coordinates.
          Keep R1 ints in memory in canonical form, NReq=3102463.
          There are     1 degrees of freedom in the 1st order CPHF.  IDoFFX=0.
 LinEq1:  Iter=  0 NonCon=     1 RMS=9.03D-03 Max=8.75D-02
 AX will form     1 AO Fock derivatives at one time.
 LinEq1:  Iter=  1 NonCon=     1 RMS=3.65D-03 Max=3.39D-02
 LinEq1:  Iter=  2 NonCon=     1 RMS=1.18D-03 Max=1.45D-02
 LinEq1:  Iter=  3 NonCon=     1 RMS=2.90D-04 Max=2.71D-03
 LinEq1:  Iter=  4 NonCon=     1 RMS=9.47D-05 Max=1.01D-03
 LinEq1:  Iter=  5 NonCon=     1 RMS=2.40D-05 Max=1.45D-04
 LinEq1:  Iter=  6 NonCon=     1 RMS=7.11D-06 Max=1.33D-04
 LinEq1:  Iter=  7 NonCon=     1 RMS=1.81D-06 Max=1.47D-05
 LinEq1:  Iter=  8 NonCon=     1 RMS=5.60D-07 Max=7.89D-06
 LinEq1:  Iter=  9 NonCon=     1 RMS=9.99D-08 Max=8.50D-07
 LinEq1:  Iter= 10 NonCon=     1 RMS=3.32D-08 Max=3.11D-07
 LinEq1:  Iter= 11 NonCon=     1 RMS=1.46D-08 Max=1.33D-07
 LinEq1:  Iter= 12 NonCon=     1 RMS=2.65D-09 Max=2.06D-08
 LinEq1:  Iter= 13 NonCon=     1 RMS=4.55D-10 Max=2.71D-09
 LinEq1:  Iter= 14 NonCon=     0 RMS=6.69D-11 Max=4.57D-10
 Linear equations converged to 1.000D-10 1.000D-09 after    14 iterations.
 End of Minotr Frequency-dependent properties file   721 does not exist.
 End of Minotr Frequency-dependent properties file   722 does not exist.
   1 Symmetry operations used in ECPInt.
 ECPInt:  NShTT=     780 NPrTT=    3579 LenC2=     772 LenP2D=    2864.
 LDataN:  DoStor=T MaxTD1= 6 Len=  172
 Calling FoFJK, ICntrl=      2127 FMM=F ISym2X=0 I1Cent= 0 IOpClX= 0 NMat=1 NMatS=1 NMatT=0.
 ***** Axes restored to original set *****
 -------------------------------------------------------------------
 Center     Atomic                   Forces (Hartrees/Bohr)
 Number     Number              X              Y              Z
 -------------------------------------------------------------------
      1        6          -0.000104637   -0.001450798   -0.000052353
      2        6           0.002872483    0.001072169   -0.000813322
      3        1           0.000289679    0.000261233    0.000502157
      4        1           0.000091544    0.000278685   -0.000398189
      5        1          -0.000002945    0.000123080    0.000474614
      6       50          -0.000156117   -0.000726819    0.000122258
      7       50          -0.000205431   -0.001023425   -0.000156288
      8       35          -0.000084262    0.000767523   -0.000053022
      9        1          -0.000827189   -0.000158271    0.000278136
     10        9          -0.001873124    0.000856624    0.000096010
 -------------------------------------------------------------------
 Cartesian Forces:  Max     0.002872483 RMS     0.000824397

 GradGradGradGradGradGradGradGradGradGradGradGradGradGradGradGradGradGrad
 Berny optimization.
 Using GEDIIS/GDIIS optimizer.
 Internal  Forces:  Max     0.001874262 RMS     0.000713517
 Search for a local minimum.
 Step number   4 out of a maximum of   43
 All quantities printed in internal units (Hartrees-Bohrs-Radians)
 Mixed Optimization -- En-DIIS/RFO-DIIS
 Swaping is turned off.
 Update second derivatives using D2CorX and points    1    2    3    4
 DE= -5.19D-05 DEPred=-1.52D-04 R= 3.42D-01
 Trust test= 3.42D-01 RLast= 1.79D-01 DXMaxT set to 5.05D-01
     Eigenvalues ---    0.00237   0.00459   0.01689   0.02231   0.03082
     Eigenvalues ---    0.03094   0.04153   0.06607   0.09477   0.11443
     Eigenvalues ---    0.12094   0.12171   0.12289   0.13366   0.16014
     Eigenvalues ---    0.16140   0.18024   0.21944   0.23129   0.24357
     Eigenvalues ---    0.29211   0.37448   0.39595   0.620071000.00000
     Eigenvalues --- 1000.000001000.000001000.000001000.000001000.00000
     Eigenvalues --- 1000.000001000.000001000.00000
 En-DIIS/RFO-DIIS IScMMF=        0 using points:     4    3
 RFO step:  Lambda=-4.32092149D-05.
 DIIS coeffs:      0.60548      0.39452
 Iteration  1 RMS(Cart)=  0.06639002 RMS(Int)=  0.00240484
 Iteration  2 RMS(Cart)=  0.00247920 RMS(Int)=  0.00001438
 Iteration  3 RMS(Cart)=  0.00000286 RMS(Int)=  0.00001430
 Iteration  4 RMS(Cart)=  0.00000000 RMS(Int)=  0.00001430
 Variable       Old X    -DE/DX   Delta X   Delta X   Delta X     New X
                                  (DIIS)     (GDIIS)  (Total)
    R1        2.58359  -0.00121  -0.00019   0.00074   0.00055   2.58414
    R2        3.69125   0.00070   0.00079   0.00234   0.00313   3.69439
    R3        2.06789  -0.00087   0.00035  -0.00152  -0.00117   2.06672
    R4        4.15478   0.00041   0.00575  -0.01059  -0.00483   4.14994
    R5        2.78379  -0.00187  -0.00701   0.01511   0.00810   2.79189
    R6        3.28256  -0.00026   0.00248  -0.00651  -0.00402   3.27854
    R7        3.29036  -0.00028   0.00131  -0.00390  -0.00259   3.28777
    R8        3.27760   0.00011   0.00193  -0.00326  -0.00133   3.27626
    R9        5.17116   0.00062   0.00706  -0.01247  -0.00541   5.16574
    A1        2.12753   0.00087   0.00208  -0.00198   0.00011   2.12764
    A2        2.15802  -0.00050   0.00047  -0.00303  -0.00256   2.15546
    A3        1.99764  -0.00037  -0.00256   0.00501   0.00245   2.00009
    A4        2.35636   0.00076  -0.00418   0.01154   0.00736   2.36372
    A5        1.96944   0.00082   0.00576  -0.01114  -0.00538   1.96406
    A6        1.95593  -0.00158  -0.00173  -0.00012  -0.00185   1.95408
    A7        1.81144  -0.00102  -0.00344   0.00420   0.00073   1.81217
    A8        1.86663   0.00056  -0.00696   0.01836   0.01139   1.87802
    A9        2.00193   0.00082  -0.00967   0.02869   0.01905   2.02098
   A10        1.82469   0.00037  -0.00602   0.01523   0.00920   1.83389
   A11        1.97332   0.00009   0.00546  -0.01323  -0.00777   1.96554
   A12        2.01169  -0.00092   0.00629  -0.01929  -0.01300   1.99869
    D1       -0.04343  -0.00008  -0.00207   0.00346   0.00139  -0.04204
    D2       -3.12069   0.00000   0.00094  -0.00242  -0.00149  -3.12218
    D3        3.09975  -0.00020  -0.00252   0.00227  -0.00025   3.09950
    D4        0.02250  -0.00012   0.00049  -0.00362  -0.00313   0.01937
    D5        0.65861  -0.00033   0.00580  -0.01245  -0.00662   0.65199
    D6        2.78169   0.00036  -0.01002   0.03139   0.02135   2.80304
    D7       -2.54697  -0.00034   0.00303  -0.00689  -0.00385  -2.55081
    D8       -0.42388   0.00035  -0.01279   0.03694   0.02412  -0.39976
    D9        3.03072   0.00070   0.03906   0.05362   0.09266   3.12338
   D10        0.93313   0.00084   0.03787   0.05841   0.09625   1.02938
   D11       -1.25434   0.00025   0.02563   0.08622   0.11188  -1.14246
   D12        2.93126   0.00040   0.02445   0.09101   0.11547   3.04673
         Item               Value     Threshold  Converged?
 Maximum Force            0.001874     0.000450     NO 
 RMS     Force            0.000714     0.000300     NO 
 Maximum Displacement     0.229461     0.001800     NO 
 RMS     Displacement     0.066315     0.001200     NO 
 Predicted change in Energy=-1.325315D-04
 GradGradGradGradGradGradGradGradGradGradGradGradGradGradGradGradGradGrad

                          Input orientation:                          
 ---------------------------------------------------------------------
 Center     Atomic      Atomic             Coordinates (Angstroms)
 Number     Number       Type             X           Y           Z
 ---------------------------------------------------------------------
      1          6           0        2.313988    2.968557   -0.046172
      2          6           0        1.721894    1.740611    0.061242
      3          1           0       -1.310813    2.129827   -0.491274
      4          1           0       -1.990042   -2.305924   -0.201925
      5          1           0        0.684787   -2.646212    0.373544
      6         50           0       -0.323036    1.013740    0.396770
      7         50           0       -0.423066   -1.587538   -0.437425
      8         35           0        1.278895    4.625164    0.032588
      9          1           0        3.389986    3.110095   -0.181419
     10          9           0        2.698668    0.633837    0.000535
 ---------------------------------------------------------------------
                    Distance matrix (angstroms):
                    1          2          3          4          5
     1  C    0.000000
     2  C    1.367466   0.000000
     3  H    3.747101   3.107101   0.000000
     4  H    6.809485   5.497470   4.496772   0.000000
     5  H    5.861406   4.518555   5.247940   2.757113   0.000000
     6  Sn   3.312310   2.196055   1.734928   3.762648   3.796248
     7  Sn   5.329403   3.990752   3.822276   1.739815   1.733724
     8  Br   1.954985   2.918513   3.634244   7.666873   7.303570
     9  H    1.093662   2.171843   4.811907   7.634028   6.384447
    10  F    2.366659   1.477403   4.307644   5.537796   3.866985
                    6          7          8          9         10
     6  Sn   0.000000
     7  Sn   2.733594   0.000000
     8  Br   3.967517   6.458735   0.000000
     9  H    4.302968   6.055795   2.607285   0.000000
    10  F    3.071159   3.856363   4.236446   2.577379   0.000000
 Stoichiometry    C2H4BrFSn2
 Framework group  C1[X(C2H4BrFSn2)]
 Deg. of freedom    24
 Full point group                 C1      NOp   1
 Largest Abelian subgroup         C1      NOp   1
 Largest concise Abelian subgroup C1      NOp   1
[...]
     3   1     0.39   0.62   0.56     0.15   0.24   0.23     0.00   0.00   0.00
     4   1     0.01   0.00   0.01    -0.15   0.15  -0.04     0.00   0.00   0.00
     5   1    -0.13  -0.29  -0.20     0.31   0.68   0.51     0.00   0.00   0.00
     6  50     0.00  -0.01   0.00     0.00   0.00   0.00     0.00   0.00   0.00
     7  50     0.00   0.00   0.00     0.00  -0.01   0.00     0.00   0.00   0.00
     8  35     0.00   0.00   0.00     0.00   0.00   0.00     0.00   0.00   0.00
     9   1     0.01   0.00   0.00     0.00   0.00   0.00     0.44  -0.89   0.02
    10   9     0.00   0.00   0.00     0.00   0.00   0.00     0.00   0.00   0.00

 -------------------
 - Thermochemistry -
 -------------------
 Temperature   298.150 Kelvin.  Pressure   1.00000 Atm.
 Atom     1 has atomic number  6 and mass  12.00000
 Atom     2 has atomic number  6 and mass  12.00000
 Atom     3 has atomic number  1 and mass   1.00783
 Atom     4 has atomic number  1 and mass   1.00783
 Atom     5 has atomic number  1 and mass   1.00783
 Atom     6 has atomic number 50 and mass 117.90180
 Atom     7 has atomic number 50 and mass 117.90180
 Atom     8 has atomic number 35 and mass  78.91834
 Atom     9 has atomic number  1 and mass   1.00783
 Atom    10 has atomic number  9 and mass  18.99840
 Molecular mass:   361.75164 amu.
 Principal axes and moments of inertia in atomic units:
                           1         2         3
     Eigenvalues --   850.518587644.256068268.73852
           X            0.99996  -0.00844   0.00270
           Y            0.00834   0.99942   0.03306
           Z           -0.00298  -0.03304   0.99945
 This molecule is an asymmetric top.
 Rotational symmetry number  1.
 Warning -- assumption of classical behavior for rotation
           may cause significant error
 Rotational temperatures (Kelvin)      0.10184     0.01133     0.01047
 Rotational constants (GHZ):           2.12193     0.23609     0.21826
 Zero-point vibrational energy     111833.6 (Joules/Mol)
                                   26.72888 (Kcal/Mol)
 Warning -- explicit consideration of  14 degrees of freedom as
           vibrations may cause significant error
 Vibrational temperatures:     23.04    56.38    98.41   246.19   272.06
          (Kelvin)            308.62   324.08   449.15   474.10   506.68
                              562.69   597.64   691.98   872.77  1090.11
                             1116.81  1165.33  1353.53  1801.44  2237.56
                             2657.07  2666.47  2682.37  4646.50
 
 Zero-point correction=                           0.042595 (Hartree/Particle)
 Thermal correction to Energy=                    0.052713
 Thermal correction to Enthalpy=                  0.053657
 Thermal correction to Gibbs Free Energy=         0.002001
 Sum of electronic and zero-point Energies=           -197.366123
 Sum of electronic and thermal Energies=              -197.356005
 Sum of electronic and thermal Enthalpies=            -197.355061
 Sum of electronic and thermal Free Energies=         -197.406717
 
                     E (Thermal)             CV                S
                      KCal/Mol        Cal/Mol-Kelvin    Cal/Mol-Kelvin
 Total                   33.078             32.119            108.720
 Electronic               0.000              0.000              0.000
 Translational            0.889              2.981             43.551
 Rotational               0.889              2.981             32.353
 Vibrational             31.300             26.157             32.816
 Vibration     1          0.593              1.986              7.076
 Vibration     2          0.594              1.981              5.300
 Vibration     3          0.598              1.969              4.199
 Vibration     4          0.626              1.878              2.423
 Vibration     5          0.633              1.855              2.237
 Vibration     6          0.644              1.819              2.005
 Vibration     7          0.650              1.803              1.917
 Vibration     8          0.701              1.650              1.351
 Vibration     9          0.712              1.617              1.262
 Vibration    10          0.729              1.571              1.157
 Vibration    11          0.759              1.489              0.996
 Vibration    12          0.779              1.437              0.908
 Vibration    13          0.837              1.292              0.708
 Vibration    14          0.965              1.018              0.438
                       Q            Log10(Q)             Ln(Q)
 Total Bot       0.120160D+00         -0.920240         -2.118932
 Total V=0       0.470048D+19         18.672142         42.994196
 Vib (Bot)       0.169283D-15        -15.771387        -36.314960
 Vib (Bot)    1  0.129375D+02          1.111849          2.560128
 Vib (Bot)    2  0.528056D+01          0.722680          1.664032
 Vib (Bot)    3  0.301584D+01          0.479408          1.103878
 Vib (Bot)    4  0.117735D+01          0.070904          0.163263
 Vib (Bot)    5  0.105879D+01          0.024812          0.057131
 Vib (Bot)    6  0.924270D+00         -0.034201         -0.078751
 Vib (Bot)    7  0.876217D+00         -0.057389         -0.132142
 Vib (Bot)    8  0.604960D+00         -0.218273         -0.502593
 Vib (Bot)    9  0.567205D+00         -0.246260         -0.567035
 Vib (Bot)   10  0.523176D+00         -0.281353         -0.647838
 Vib (Bot)   11  0.458692D+00         -0.338479         -0.779376
 Vib (Bot)   12  0.424208D+00         -0.372421         -0.857531
 Vib (Bot)   13  0.347456D+00         -0.459101         -1.057119
 Vib (Bot)   14  0.244484D+00         -0.611750         -1.408606
 Vib (V=0)       0.662210D+04          3.820996          8.798168
 Vib (V=0)    1  0.134471D+02          1.128630          2.598766
 Vib (V=0)    2  0.580418D+01          0.763741          1.758578
 Vib (V=0)    3  0.355701D+01          0.551085          1.268919
 Vib (V=0)    4  0.177912D+01          0.250205          0.576118
 Vib (V=0)    5  0.167092D+01          0.222955          0.513373
 Vib (V=0)    6  0.155084D+01          0.190568          0.438800
 Vib (V=0)    7  0.150884D+01          0.178643          0.411340
 Vib (V=0)    8  0.128484D+01          0.108850          0.250636
 Vib (V=0)    9  0.125612D+01          0.099032          0.228030
 Vib (V=0)   10  0.122368D+01          0.087668          0.201863
 Vib (V=0)   11  0.117853D+01          0.071339          0.164265
 Vib (V=0)   12  0.115571D+01          0.062848          0.144713
 Vib (V=0)   13  0.110887D+01          0.044881          0.103343
 Vib (V=0)   14  0.105657D+01          0.023899          0.055030
 Electronic      0.100000D+01          0.000000          0.000000
 Translational   0.270440D+09          8.432071         19.415561
 Rotational      0.262468D+07          6.419076         14.780468
 ***** Axes restored to original set *****
 -------------------------------------------------------------------
 Center     Atomic                   Forces (Hartrees/Bohr)
 Number     Number              X              Y              Z
 -------------------------------------------------------------------
      1        6           0.000005438   -0.000056287    0.000003783
      2        6           0.000008000    0.000051817   -0.000016419
      3        1           0.000005334   -0.000000769    0.000000342
      4        1           0.000003358    0.000003939    0.000000580
      5        1          -0.000005370   -0.000000832   -0.000005183
      6       50          -0.000004575   -0.000007803   -0.000001148
      7       50           0.000003530    0.000001248    0.000008830
      8       35          -0.000004770    0.000004472    0.000002336
      9        1          -0.000013407    0.000006623    0.000002167
     10        9           0.000002464   -0.000002409    0.000004710
 -------------------------------------------------------------------
 Cartesian Forces:  Max     0.000056287 RMS     0.000015088

 GradGradGradGradGradGradGradGradGradGradGradGradGradGradGradGradGradGrad
 Berny optimization.
 Internal  Forces:  Max     0.000046845 RMS     0.000010511
 Search for a local minimum.
 Step number   1 out of a maximum of    2
 All quantities printed in internal units (Hartrees-Bohrs-Radians)
 Second derivative matrix not updated -- analytic derivatives used.
     Eigenvalues ---    0.00168   0.00692   0.00952   0.01624   0.03038
     Eigenvalues ---    0.03299   0.04258   0.04445   0.06533   0.06954
     Eigenvalues ---    0.07743   0.08605   0.09575   0.11057   0.12313
     Eigenvalues ---    0.13029   0.13093   0.13189   0.15870   0.18499
     Eigenvalues ---    0.21160   0.28878   0.36701   0.547961000.00000
     Eigenvalues --- 1000.000001000.000001000.000001000.000001000.00000
     Eigenvalues --- 1000.000001000.000001000.00000
 Angle between quadratic step and forces=  73.71 degrees.
 Linear search not attempted -- first point.
 Iteration  1 RMS(Cart)=  0.00084436 RMS(Int)=  0.00000017
 Iteration  2 RMS(Cart)=  0.00000026 RMS(Int)=  0.00000001
 Variable       Old X    -DE/DX   Delta X   Delta X   Delta X     New X
                                 (Linear)    (Quad)   (Total)
    R1        2.58086  -0.00005   0.00000  -0.00009  -0.00009   2.58077
    R2        3.69316   0.00001   0.00000   0.00009   0.00009   3.69325
    R3        2.06589  -0.00001   0.00000  -0.00004  -0.00004   2.06585
    R4        4.15542   0.00000   0.00000  -0.00001  -0.00001   4.15541
    R5        2.77737   0.00000   0.00000   0.00002   0.00002   2.77738
    R6        3.28086   0.00000   0.00000  -0.00003  -0.00003   3.28083
    R7        3.28974   0.00000   0.00000  -0.00003  -0.00003   3.28972
    R8        3.27882  -0.00001   0.00000  -0.00005  -0.00005   3.27877
    R9        5.17610  -0.00001   0.00000  -0.00010  -0.00010   5.17599
    A1        2.13523  -0.00001   0.00000  -0.00010  -0.00010   2.13512
    A2        2.15338   0.00001   0.00000   0.00017   0.00017   2.15355
    A3        1.99458   0.00000   0.00000  -0.00006  -0.00006   1.99452
    A4        2.36583   0.00000   0.00000  -0.00010  -0.00010   2.36573
    A5        1.97348   0.00000   0.00000   0.00004   0.00004   1.97351
    A6        1.94247   0.00000   0.00000   0.00005   0.00005   1.94252
    A7        1.80249  -0.00001   0.00000  -0.00009  -0.00009   1.80241
    A8        1.89016   0.00002   0.00000   0.00030   0.00030   1.89046
    A9        2.02388   0.00000   0.00000  -0.00013  -0.00013   2.02374
   A10        1.82840   0.00000   0.00000  -0.00001  -0.00001   1.82839
   A11        1.95621  -0.00001   0.00000  -0.00027  -0.00027   1.95594
   A12        1.99167   0.00002   0.00000   0.00031   0.00031   1.99198
    D1       -0.04505   0.00000   0.00000  -0.00026  -0.00026  -0.04532
    D2       -3.12286   0.00001   0.00000   0.00015   0.00015  -3.12271
    D3        3.09586   0.00000   0.00000  -0.00032  -0.00032   3.09555
    D4        0.01805   0.00000   0.00000   0.00010   0.00010   0.01815
    D5        0.61004   0.00000   0.00000   0.00100   0.00100   0.61104
    D6        2.76527   0.00000   0.00000   0.00095   0.00095   2.76622
    D7       -2.59453   0.00000   0.00000   0.00059   0.00059  -2.59394
    D8       -0.43930   0.00000   0.00000   0.00054   0.00054  -0.43876
    D9        3.07691   0.00000   0.00000   0.00017   0.00017   3.07708
   D10        1.00224   0.00000   0.00000   0.00016   0.00016   1.00240
   D11       -1.19099   0.00000   0.00000   0.00019   0.00019  -1.19080
   D12        3.01753   0.00000   0.00000   0.00018   0.00018   3.01770
         Item               Value     Threshold  Converged?
 Maximum Force            0.000047     0.000450     YES
 RMS     Force            0.000011     0.000300     YES
 Maximum Displacement     0.002179     0.001800     NO 
 RMS     Displacement     0.000844     0.001200     YES
 Predicted change in Energy=-1.525745D-08
 GradGradGradGradGradGradGradGradGradGradGradGradGradGradGradGradGradGrad

 1\1\GINC-MALLOS69\Freq\RMP2-FC\SDD\C2H4Br1F1Sn2\MARLIN\25-Oct-2024\0\\
 #N Geom=AllCheck Guess=TCheck SCRF=Check GenChk RMP2(FC)/SDD Freq\\Tit
 le Card Required\\0,1\C,2.3113983982,2.9705148213,-0.0478876451\C,1.72
 69168765,1.7425222151,0.0771689086\H,-1.2964869447,2.1417615059,-0.472
 8984431\H,-1.9969914434,-2.3118267637,-0.1592412419\H,0.6946822953,-2.
 6521317836,0.3089601976\Sn,-0.3187056616,1.0031532995,0.3998875373\Sn,
 -0.4411751592,-1.5929983671,-0.4647049144\Br,1.2763914557,4.6281324403
 ,-0.0254367238\H,3.3884400845,3.1146198783,-0.1676845204\F,2.696791218
 6,0.6384099941,0.0583004152\\Version=EM64L-G09RevA.01\State=1-A\HF=-19
 6.9954154\MP2=-197.408718\RMSD=1.965e-09\RMSF=1.509e-05\ZeroPoint=0.04
 25952\Thermal=0.0527126\Dipole=-0.5860966,-0.1779721,-0.0807502\Dipole
 Deriv=-0.1587896,-0.7494751,-0.0220825,-0.0419345,0.6103784,0.0258588,
 -0.0185785,0.0189374,-0.2698589,0.3308033,-0.0542465,0.0413265,-0.3887
 715,0.0117754,-0.0150795,0.1151235,0.3173305,0.0111685,-0.2787142,-0.0
 594733,-0.0290388,0.0778901,-0.2983363,0.0966276,-0.080567,0.3415531,-
 0.0685003,-0.3702918,-0.1982326,-0.0427907,-0.1446656,-0.3366932,0.051
 6255,0.0922258,0.3019483,-0.0600586,-0.2432242,0.0376608,-0.0162265,0.
 0843327,-0.3673757,0.0923404,-0.0422273,0.3570069,-0.0639337,0.8254395
 ,0.486822,0.0714774,0.1377788,0.7000629,-0.1861204,-0.0381722,-0.67111
 34,0.2162999,0.6797444,0.1224764,0.0376068,0.0371236,0.7882946,-0.1361
 787,-0.066727,-0.6579643,0.191007,-0.0630536,0.1808137,0.0084748,0.025
 0267,-0.2822651,0.0112328,0.0162175,0.0072343,-0.0133375,-0.0259484,0.
 0469905,0.0245448,0.0093974,-0.1173964,0.0038134,0.0010419,-0.0403513,
 0.2431858,-0.6959654,0.1866642,-0.0732919,0.2038222,-0.7084447,0.05588
 01,0.0216634,0.0254187,-0.1859722\Polar=95.9764475,11.928701,200.40346
 37,4.6485171,33.7155127,63.516905\PG=C01 [X(C2H4Br1F1Sn2)]\NImag=0\\0.
 57425247,0.15848516,0.58904366,-0.06098694,-0.04525676,0.08041230,-0.1
 6703987,-0.15538053,0.02201805,0.38546794,-0.19357573,-0.38975125,0.03
 939070,0.13053112,0.56618864,0.02563055,0.03578529,-0.03997076,-0.0439
 9862,-0.04679259,0.06995170,-0.00031351,0.00109817,0.00025749,-0.00119
 537,0.00549104,-0.00569526,0.05006955,0.00124320,-0.00088584,0.0000528
 9,-0.00078168,0.00194739,-0.00159437,-0.04354200,0.06337435,-0.0005082
 8,-0.00014017,0.00004658,0.00197749,0.00113877,0.00009719,0.03379114,-
 0.04042652,0.03542513,0.00000719,0.00023977,-0.00006861,0.00013232,0.0
 0051371,-0.00015799,0.00007828,-0.00018399,0.00004636,0.10637468,-0.00
 102281,0.00033751,0.00003104,0.00105977,-0.00186834,-0.00219668,0.0004
 3343,-0.00058442,-0.00111013,0.04308750,0.03183941,-0.00073616,-0.0001
 2790,0.00020071,-0.00011905,-0.00174566,0.00097234,0.00018100,-0.00118
 167,-0.00096495,-0.01627923,-0.00984789,0.00945322,0.00026303,-0.00011
 184,-0.00000795,-0.00027436,0.00088487,0.00003166,0.00023306,-0.000098
 14,-0.00055758,-0.00593433,0.00571120,-0.00487982,0.06483594,-0.000230
 05,0.00005372,-0.00001944,0.00054463,-0.00043209,-0.00113587,-0.000064
 77,-0.00160127,-0.00220390,-0.00328853,0.00316420,-0.00096892,-0.04746
 160,0.05561195,0.00022386,-0.00061489,0.00009785,-0.00064562,0.0002280
 5,-0.00132575,-0.00057355,-0.00194559,0.00056711,0.00231951,-0.0003196
 0,0.00091667,0.03538394,-0.03342484,0.02886044,0.00184220,-0.00203566,
 0.00002829,-0.09363741,-0.03369456,0.01870098,-0.04493996,0.04415164,-
 0.03757697,-0.00038827,-0.00510093,-0.00171521,-0.00001881,0.00300203,
 0.00085957,0.15579323,-0.01276559,-0.00000054,0.00112287,-0.03459278,-
 0.02708663,0.01425423,0.03765042,-0.06519029,0.04738114,0.00173552,0.0
 0327040,-0.00128742,-0.00086817,0.00199072,-0.00234110,-0.00466406,0.1
 7251541,-0.00036668,0.00047522,0.00122066,0.01131685,0.00301462,-0.017
 03125,-0.02888037,0.03652556,-0.03654184,0.00138690,0.00640542,0.00056
 846,0.00010401,0.00797975,0.00165060,0.02120935,-0.03524694,0.05931215
 ,-0.00240393,0.00070283,0.00021039,0.00109559,-0.00717413,-0.00180826,
 0.00029397,0.00244739,0.00138315,-0.10028080,-0.04415904,0.02315376,-0
 .05942054,0.04799271,-0.03819512,-0.00743279,-0.00183868,-0.00203054,0
 .16846405,0.00211908,-0.00011771,-0.00017664,-0.00058304,0.00140527,-0
 .00166411,-0.00041775,0.00231238,-0.00309821,-0.04156986,-0.03564577,0
 .01545826,0.04240264,-0.05884160,0.03908294,-0.00382105,-0.07734513,-0
 .02026492,0.00117014,0.16729305,0.00145389,0.00091122,-0.00030511,0.00
 146013,0.00379354,0.00088657,0.00017503,0.00815459,0.00103252,0.012749
 40,0.00675300,-0.01114804,-0.03013324,0.02953159,-0.03084891,-0.001839
 15,-0.02117072,-0.01364235,0.01723884,-0.02967687,0.05439587,-0.060636
 41,0.05008744,0.00234343,-0.00063584,-0.00218240,-0.00028266,-0.000055
 36,-0.00144981,0.00011208,0.00002500,-0.00001620,-0.00001062,0.0000103
 7,-0.00012742,-0.00012015,-0.00175530,0.00025382,-0.00027350,0.0001645
 0,-0.00006282,0.00031236,0.06552741,0.05023831,-0.10417639,-0.00035719
 ,0.02398591,-0.02083059,-0.00088614,-0.00083965,-0.00083381,-0.0003087
 2,-0.00008740,-0.00009381,-0.00005965,-0.00005555,-0.00008860,-0.00002
 738,0.00030566,-0.00084440,-0.00029606,0.00019908,0.00016130,0.0002431
 0,-0.07095401,0.14115066,0.00213918,-0.00032462,-0.01318657,-0.0015429
 8,0.00101927,-0.00237429,-0.00017240,-0.00009530,0.00016662,-0.0000201
 0,-0.00009277,0.00008100,0.00002558,-0.00003589,-0.00005922,0.00031909
 ,0.00001789,-0.00081710,-0.00014116,-0.00008126,-0.00003552,-0.0019126
 7,0.00087304,0.00729143,-0.34706242,-0.05230042,0.03588731,-0.00543295
 ,0.00648981,0.00167621,0.00004216,-0.00012816,0.00003694,0.00004692,0.
 00002447,-0.00009794,0.00001096,-0.00000632,-0.00001148,0.00014718,-0.
 00005108,0.00008447,-0.00005722,0.00019478,0.00023818,-0.00464654,-0.0
 0031044,0.00071029,0.35514166,-0.04241456,-0.04888718,0.00557776,-0.02
 922730,-0.00318727,0.00409509,-0.00019027,0.00020506,-0.00006899,0.000
 00118,-0.00023750,-0.00021916,0.00006373,-0.00005653,0.00006255,0.0008
 9207,-0.00185064,-0.00017201,-0.00054186,0.00057012,0.00043631,0.02526
 290,-0.01042769,-0.00206041,0.04525548,0.06038725,0.03514775,0.0070024
 3,-0.03484539,0.00381126,0.00031917,0.01341670,0.00054333,0.00020851,-
 0.00017710,0.00004786,0.00038248,-0.00022453,-0.00002569,0.00018496,0.
 00015924,-0.00056538,-0.00071485,0.00364405,0.00032938,0.00015104,0.00
 001002,-0.00064073,0.00018272,0.00195857,-0.03749367,-0.00696732,0.023
 34365,0.00109125,-0.00078491,0.00031853,-0.11848005,0.09271627,0.00590
 340,-0.00421283,-0.00165846,0.00129568,-0.00006099,-0.00001740,0.00050
 328,0.00029468,-0.00036067,0.00075905,-0.00961006,0.01514061,-0.002550
 51,-0.00042283,0.00056788,-0.00165544,0.00200218,-0.00248190,0.0005951
 8,0.00181024,0.00089863,-0.00115412,0.12758841,0.03792298,-0.04561598,
 -0.00036523,0.06444391,-0.12638514,0.00013517,0.00038139,0.00125644,-0
 .00116327,-0.00044791,-0.00018167,-0.00002001,-0.00046713,0.00019951,-
 0.00070013,0.00096487,-0.00545890,0.00157936,0.00120156,0.00020808,0.0
 0102424,-0.00081150,-0.00401665,0.00078004,0.00083187,0.00348439,-0.00
 074915,-0.10402004,0.17650992,-0.00199716,0.00229017,0.00632973,0.0057
 2249,-0.00036587,-0.02462246,0.00037360,0.00030189,0.00034873,-0.00002
 410,-0.00000486,0.00014512,0.00005908,0.00009257,-0.00001804,0.0005794
 4,-0.00201510,0.00163661,-0.00014044,0.00026976,-0.00034505,0.00047247
 ,0.00063626,0.00697507,-0.00103031,-0.00068381,-0.00728522,-0.00401506
 ,-0.00052102,0.01683550\\-0.00000544,0.00005629,-0.00000378,-0.0000080
 0,-0.00005182,0.00001642,-0.00000533,0.00000077,-0.00000034,-0.0000033
 6,-0.00000394,-0.00000058,0.00000537,0.00000083,0.00000518,0.00000458,
 0.00000780,0.00000115,-0.00000353,-0.00000125,-0.00000883,0.00000477,-
 0.00000447,-0.00000234,0.00001341,-0.00000662,-0.00000217,-0.00000246,
 0.00000241,-0.00000471\\\@


 WOE UNTO THEM THAT CALL EVIL GOOD, AND GOOD EVIL      
 Job cpu time:  0 days  0 hours  4 minutes 33.5 seconds.
 File lengths (MBytes):  RWF=    197 Int=      0 D2E=      0 Chk=      2 Scr=      1
 Normal termination of Gaussian 09 at Fri Oct 25 12:52:54 2024.
