 Entering Gaussian System, Link 0=g09
 Initial command:
 /u/local/G09/g09/l1.exe /tmp/marlin/22658.mallos00.local/Gau-7576.inp -scrdir=/tmp/marlin/22658.mallos00.local/
 Entering Link 1 = /u/local/G09/g09/l1.exe PID=      7578.
  
 Copyright (c) 1988,1990,1992,1993,1995,1998,2003,2009, Gaussian, Inc.
                  All Rights Reserved.
  
 This is part of the Gaussian(R) 09 program.  It is based on
 the Gaussian(R) 03 system (copyright 2003, Gaussian, Inc.),
 the Gaussian(R) 98 system (copyright 1998, Gaussian, Inc.),
 the Gaussian(R) 94 system (copyright 1995, Gaussian, Inc.),
 the Gaussian 92(TM) system (copyright 1992, Gaussian, Inc.),
 the Gaussian 90(TM) system (copyright 1990, Gaussian, Inc.),
 the Gaussian 88(TM) system (copyright 1988, Gaussian, Inc.),
 the Gaussian 86(TM) system (copyright 1986, Carnegie Mellon
 University), and the Gaussian 82(TM) system (copyright 1983,
 Carnegie Mellon University). Gaussian is a federally registered
 trademark of Gaussian, Inc.
  
 This software contains proprietary and confidential information,
 including trade secrets, belonging to Gaussian, Inc.
  
 This software is provided under written license and may be
 used, copied, transmitted, or stored only in accord with that
 written license.
  
 The following legend is applicable only to US Government
 contracts under FAR:
  
                    RESTRICTED RIGHTS LEGEND
  
 Use, reproduction and disclosure by the US Government is
 subject to restrictions as set forth in subparagraphs (a)
 and (c) of the Commercial Computer Software - Restricted
 Rights clause in FAR 52.227-19.
  
 Gaussian, Inc.
 340 Quinnipiac St., Bldg. 40, Wallingford CT 06492
  
  
 ---------------------------------------------------------------
 Warning -- This program may not be used in any manner that
 competes with the business of Gaussian, Inc. or will provide
 assistance to any competitor of Gaussian, Inc.  The licensee
 of this program is prohibited from giving any competitor of
 Gaussian, Inc. access to this program.  By using this program,
 the user acknowledges that Gaussian, Inc. is engaged in the
 business of creating and licensing software in the field of
 computational chemistry and represents and warrants to the
 licensee that it is not a competitor of Gaussian, Inc. and that
 it will not use this program in any manner prohibited above.
 ---------------------------------------------------------------
  

 Cite this work as:
 Gaussian 09, Revision A.01,
 M. J. Frisch, G. W. Trucks, H. B. Schlegel, G. E. Scuseria, 
 M. A. Robb, J. R. Cheeseman, G. Scalmani, V. Barone, B. Mennucci, 
 G. A. Petersson, H. Nakatsuji, M. Caricato, X. Li, H. P. Hratchian, 
 A. F. Izmaylov, J. Bloino, G. Zheng, J. L. Sonnenberg, M. Hada, 
 M. Ehara, K. Toyota, R. Fukuda, J. Hasegawa, M. Ishida, T. Nakajima, 
 Y. Honda, O. Kitao, H. Nakai, T. Vreven, J. A. Montgomery, Jr., 
 J. E. Peralta, F. Ogliaro, M. Bearpark, J. J. Heyd, E. Brothers, 
 K. N. Kudin, V. N. Staroverov, R. Kobayashi, J. Normand, 
 K. Raghavachari, A. Rendell, J. C. Burant, S. S. Iyengar, J. Tomasi, 
 M. Cossi, N. Rega, J. M. Millam, M. Klene, J. E. Knox, J. B. Cross, 
 V. Bakken, C. Adamo, J. Jaramillo, R. Gomperts, R. E. Stratmann, 
 O. Yazyev, A. J. Austin, R. Cammi, C. Pomelli, J. W. Ochterski, 
 R. L. Martin, K. Morokuma, V. G. Zakrzewski, G. A. Voth, 
 P. Salvador, J. J. Dannenberg, S. Dapprich, A. D. Daniels, 
 O. Farkas, J. B. Foresman, J. V. Ortiz, J. Cioslowski, 
 and D. J. Fox, Gaussian, Inc., Wallingford CT, 2009.
 
 ******************************************
 Gaussian 09:  EM64L-G09RevA.01  8-May-2009
                24-Oct-2024 
 ******************************************
 %mem=206GB
 %nproc=20
 Will use up to   20 processors via shared memory.
 %chk=3-lanl2dz.chk
 -----------------------------------------------
 # opt freq=noraman hf/lanl2dz geom=connectivity
 -----------------------------------------------
 1/18=20,19=15,38=1,57=2/1,3;
 2/9=110,12=2,17=6,18=5,40=1/2;
 3/5=6,6=3,11=9,16=1,25=1,30=1,71=1/1,2,3;
 4//1;
 5/5=2,38=5/2;
 6/7=2,8=2,9=2,10=2,28=1/1;
 7//1,2,3,16;
 1/18=20,19=15/3(2);
 2/9=110/2;
 99//99;
 2/9=110/2;
 3/5=6,6=3,11=9,16=1,25=1,30=1,71=1/1,2,3;
 4/5=5,16=3/1;
 5/5=2,38=5/2;
 7//1,2,3,16;
 1/18=20,19=15/3(-5);
 2/9=110/2;
 6/7=2,8=2,9=2,10=2,19=2,28=1/1;
 99/9=1/99;
 -------------------
 Title Card Required
 -------------------
 Symbolic Z-matrix:
 Charge =  0 Multiplicity = 1
 C                     2.25546   2.98342   0. 
 C                     1.95702   1.67669   0. 
 H                    -0.99512   2.07244  -0.73283 
 H                    -2.2088   -2.08731   0. 
 H                     0.57987  -2.78595   0. 
 Sn                    0.        0.91451   0. 
 Sn                   -0.60005  -1.57956   0. 
 F                     2.96874   0.78286   0. 
 Br                    4.06556   3.59306   0. 
 H                     1.51001   3.75101   0. 
 

 GradGradGradGradGradGradGradGradGradGradGradGradGradGradGradGradGradGrad
 Berny optimization.
 Initialization pass.
                           ----------------------------
                           !    Initial Parameters    !
                           ! (Angstroms and Degrees)  !
 --------------------------                            --------------------------
 ! Name  Definition              Value          Derivative Info.                !
 --------------------------------------------------------------------------------
 ! R1    R(1,2)                  1.3404         estimate D2E/DX2                !
 ! R2    R(1,9)                  1.91           estimate D2E/DX2                !
 ! R3    R(1,10)                 1.07           estimate D2E/DX2                !
 ! R4    R(2,6)                  2.1002         estimate D2E/DX2                !
 ! R5    R(2,8)                  1.35           estimate D2E/DX2                !
 ! R6    R(3,6)                  1.6935         estimate D2E/DX2                !
 ! R7    R(4,7)                  1.687          estimate D2E/DX2                !
 ! R8    R(5,7)                  1.6875         estimate D2E/DX2                !
 ! R9    R(6,7)                  2.5652         estimate D2E/DX2                !
 ! A1    A(2,1,9)              121.4784         estimate D2E/DX2                !
 ! A2    A(2,1,10)             122.9738         estimate D2E/DX2                !
 ! A3    A(9,1,10)             115.5478         estimate D2E/DX2                !
 ! A4    A(1,2,6)              124.1436         estimate D2E/DX2                !
 ! A5    A(1,2,8)              118.5949         estimate D2E/DX2                !
 ! A6    A(6,2,8)              117.2615         estimate D2E/DX2                !
 ! A7    A(2,6,3)              107.4219         estimate D2E/DX2                !
 ! A8    A(2,6,7)              124.8064         estimate D2E/DX2                !
 ! A9    A(3,6,7)              121.8242         estimate D2E/DX2                !
 ! A10   A(4,7,5)              116.8478         estimate D2E/DX2                !
 ! A11   A(4,7,6)              121.0443         estimate D2E/DX2                !
 ! A12   A(5,7,6)              122.1079         estimate D2E/DX2                !
 ! D1    D(9,1,2,6)            180.0            estimate D2E/DX2                !
 ! D2    D(9,1,2,8)              0.0            estimate D2E/DX2                !
 ! D3    D(10,1,2,6)             0.0            estimate D2E/DX2                !
 ! D4    D(10,1,2,8)           180.0            estimate D2E/DX2                !
 ! D5    D(1,2,6,3)             26.97           estimate D2E/DX2                !
 ! D6    D(1,2,6,7)            180.0            estimate D2E/DX2                !
 ! D7    D(8,2,6,3)           -153.03           estimate D2E/DX2                !
 ! D8    D(8,2,6,7)              0.0            estimate D2E/DX2                !
 ! D9    D(2,6,7,4)            180.0            estimate D2E/DX2                !
 ! D10   D(2,6,7,5)              0.0            estimate D2E/DX2                !
 ! D11   D(3,6,7,4)            -30.6158         estimate D2E/DX2                !
 ! D12   D(3,6,7,5)            149.3842         estimate D2E/DX2                !
 --------------------------------------------------------------------------------
 Trust Radius=3.00D-01 FncErr=1.00D-07 GrdErr=1.00D-07
 Number of steps in this run=  43 maximum allowed number of steps= 100.
 GradGradGradGradGradGradGradGradGradGradGradGradGradGradGradGradGradGrad

                          Input orientation:                          
 ---------------------------------------------------------------------
 Center     Atomic      Atomic             Coordinates (Angstroms)
 Number     Number       Type             X           Y           Z
 ---------------------------------------------------------------------
      1          6           0        2.255461    2.983417    0.000000
      2          6           0        1.957023    1.676688    0.000000
      3          1           0       -0.995117    2.072444   -0.732829
      4          1           0       -2.208804   -2.087312    0.000000
      5          1           0        0.579873   -2.785954    0.000000
      6         50           0        0.000000    0.914514    0.000000
      7         50           0       -0.600048   -1.579560    0.000000
      8          9           0        2.968740    0.782860    0.000000
      9         35           0        4.065555    3.593056    0.000000
     10          1           0        1.510012    3.751015    0.000000
 ---------------------------------------------------------------------
                    Distance matrix (angstroms):
                    1          2          3          4          5
     1  C    0.000000
     2  C    1.340375   0.000000
     3  H    3.454442   3.067375   0.000000
     4  H    6.755883   5.614429   4.394729   0.000000
     5  H    6.007765   4.670301   5.159618   2.874860   0.000000
     6  Sn   3.060631   2.100202   1.693546   3.726899   3.745626
     7  Sn   5.382814   4.140261   3.745697   1.686982   1.687483
     8  F    2.313270   1.350000   4.232284   5.919870   4.294546
     9  Br   1.910000   2.849276   5.334763   8.463697   7.269233
    10  H    1.070000   2.121945   3.103274   6.922113   6.602811
                    6          7          8          9         10
     6  Sn   0.000000
     7  Sn   2.565241   0.000000
     8  F    2.971658   4.279869   0.000000
     9  Br   4.868606   6.965903   3.016654   0.000000
    10  H    3.213390   5.733008   3.307239   2.560420   0.000000
 Stoichiometry    C2H4BrFSn2
 Framework group  C1[X(C2H4BrFSn2)]
 Deg. of freedom    24
 Full point group                 C1      NOp   1
 Largest Abelian subgroup         C1      NOp   1
 Largest concise Abelian subgroup C1      NOp   1
                         Standard orientation:                         
 ---------------------------------------------------------------------
 Center     Atomic      Atomic             Coordinates (Angstroms)
 Number     Number       Type             X           Y           Z
 ---------------------------------------------------------------------
      1          6           0       -2.431127    0.609008   -0.016828
      2          6           0       -1.279108   -0.076013   -0.002562
      3          1           0        0.470679    2.349625    0.678110
      4          1           0        4.319563    0.344200   -0.013269
      5          1           0        2.902060   -2.156322    0.040551
      6         50           0        0.622550    0.815144   -0.022176
      7         50           0        2.842332   -0.470280    0.004576
      8          9           0       -1.329692   -1.424757    0.026246
      9         35           0       -4.120998   -0.280966    0.002695
     10          1           0       -2.472790    1.677954   -0.039634
 ---------------------------------------------------------------------
 Rotational constants (GHZ):      3.0177333      0.2024891      0.1898309
 Standard basis: LANL2DZ (5D, 7F)
 There are    59 symmetry adapted basis functions of A   symmetry.
 Integral buffers will be    131072 words long.
 Raffenetti 1 integral format.
 Two-electron integral symmetry is turned on.
    59 basis functions,   127 primitive gaussians,    59 cartesian basis functions
    20 alpha electrons       20 beta electrons
       nuclear repulsion energy       136.6254205533 Hartrees.
 NAtoms=   10 NActive=   10 NUniq=   10 SFac= 7.50D-01 NAtFMM=   80 NAOKFM=F Big=F
 One-electron integrals computed using PRISM.
   1 Symmetry operations used in ECPInt.
 ECPInt:  NShTT=     630 NPrTT=    3262 LenC2=     625 LenP2D=    2696.
 LDataN:  DoStor=T MaxTD1= 4 Len=   56
 NBasis=    59 RedAO= T  NBF=    59
 NBsUse=    59 1.00D-06 NBFU=    59
 Harris functional with IExCor=  205 diagonalized for initial guess.
 ExpMin= 6.30D-02 ExpMax= 1.00D+04 ExpMxC= 3.50D+02 IAcc=2 IRadAn=         0 AccDes= 0.00D+00
 HarFok:  IExCor=  205 AccDes= 0.00D+00 IRadAn=         0 IDoV= 1
 ScaDFX=  1.000000  1.000000  1.000000  1.000000
 Defaulting to unpruned grid for atomic number  50.
 Defaulting to unpruned grid for atomic number  50.
 Defaulting to unpruned grid for atomic number  50.
 Defaulting to unpruned grid for atomic number  50.
 Defaulting to unpruned grid for atomic number  50.
 Defaulting to unpruned grid for atomic number  50.
 Defaulting to unpruned grid for atomic number  50.
 Defaulting to unpruned grid for atomic number  50.
 Defaulting to unpruned grid for atomic number  50.
 Defaulting to unpruned grid for atomic number  50.
 Defaulting to unpruned grid for atomic number  50.
 Defaulting to unpruned grid for atomic number  50.
 Defaulting to unpruned grid for atomic number  50.
 Defaulting to unpruned grid for atomic number  50.
 Defaulting to unpruned grid for atomic number  50.
 Defaulting to unpruned grid for atomic number  50.
 Defaulting to unpruned grid for atomic number  50.
 Defaulting to unpruned grid for atomic number  50.
 Defaulting to unpruned grid for atomic number  50.
 Defaulting to unpruned grid for atomic number  50.
 FoFCou: FMM=F IPFlag=           0 FMFlag=      100000 FMFlg1=           0
         NFxFlg=           0 DoJE=T BraDBF=F KetDBF=T FulRan=T
         Omega=  0.000000  0.000000  1.000000  0.000000  0.000000 ICntrl=     500 IOpCl=  0
         NMat0=    1 NMatS0=    1 NMatT0=    0 NMatD0=    1 NMtDS0=    0 NMtDT0=    0
         I1Cent=           4 NGrid=           0.
 Petite list used in FoFCou.
 Initial guess orbital symmetries:
       Occupied  (A) (A) (A) (A) (A) (A) (A) (A) (A) (A) (A) (A)
                 (A) (A) (A) (A) (A) (A) (A) (A)
       Virtual   (A) (A) (A) (A) (A) (A) (A) (A) (A) (A) (A) (A)
                 (A) (A) (A) (A) (A) (A) (A) (A) (A) (A) (A) (A)
                 (A) (A) (A) (A) (A) (A) (A) (A) (A) (A) (A) (A)
                 (A) (A) (A)
 The electronic state of the initial guess is 1-A.
 Requested convergence on RMS density matrix=1.00D-08 within 128 cycles.
 Requested convergence on MAX density matrix=1.00D-06.
 Requested convergence on             energy=1.00D-06.
 No special actions if energy rises.
 Keep R1 ints in memory in canonical form, NReq=2397586.
 SCF Done:  E(RHF) =  -196.761079904     A.U. after   15 cycles
             Convg  =    0.4921D-08             -V/T =  2.0701

 **********************************************************************

            Population analysis using the SCF density.

 **********************************************************************

 Orbital symmetries:
       Occupied  (A) (A) (A) (A) (A) (A) (A) (A) (A) (A) (A) (A)
                 (A) (A) (A) (A) (A) (A) (A) (A)
       Virtual   (A) (A) (A) (A) (A) (A) (A) (A) (A) (A) (A) (A)
                 (A) (A) (A) (A) (A) (A) (A) (A) (A) (A) (A) (A)
                 (A) (A) (A) (A) (A) (A) (A) (A) (A) (A) (A) (A)
                 (A) (A) (A)
 The electronic state is 1-A.
 Alpha  occ. eigenvalues --  -26.31187 -11.35564 -11.31114  -1.64012  -1.10998
 Alpha  occ. eigenvalues --   -0.98143  -0.81330  -0.75170  -0.69999  -0.69744
 Alpha  occ. eigenvalues --   -0.66581  -0.61463  -0.55295  -0.48526  -0.47517
 Alpha  occ. eigenvalues --   -0.46378  -0.43052  -0.41393  -0.37325  -0.25593
 Alpha virt. eigenvalues --   -0.00777   0.06931   0.08572   0.12663   0.14745
 Alpha virt. eigenvalues --    0.15687   0.18696   0.25313   0.25752   0.29743
 Alpha virt. eigenvalues --    0.29959   0.31817   0.32961   0.36405   0.38811
 Alpha virt. eigenvalues --    0.40946   0.48828   0.50702   0.54645   0.58302
 Alpha virt. eigenvalues --    0.62405   0.65695   0.71739   0.71845   0.76226
 Alpha virt. eigenvalues --    0.85616   0.99681   1.17330   1.18451   1.22986
 Alpha virt. eigenvalues --    1.25056   1.29389   1.35097   1.38670   1.50729
 Alpha virt. eigenvalues --    2.34801  12.09085  13.44952  19.78754
          Condensed to atoms (all electrons):
              1          2          3          4          5          6
     1  C    5.744902   0.209970   0.005658   0.000000   0.000006  -0.084535
     2  C    0.209970   5.437729  -0.021765   0.000053   0.000376   0.254753
     3  H    0.005658  -0.021765   0.791417   0.000046   0.000011   0.372864
     4  H    0.000000   0.000053   0.000046   0.790087  -0.006569  -0.015763
     5  H    0.000006   0.000376   0.000011  -0.006569   0.781064  -0.018672
     6  Sn  -0.084535   0.254753   0.372864  -0.015763  -0.018672   2.526661
     7  Sn  -0.000670  -0.030016  -0.015600   0.361745   0.366026   0.526375
     8  F   -0.060725   0.177320   0.000133   0.000000  -0.000012  -0.033031
     9  Br   0.316902  -0.128739  -0.000009   0.000000   0.000000   0.000853
    10  H    0.358646  -0.017899   0.000072   0.000000   0.000000   0.002809
              7          8          9         10
     1  C   -0.000670  -0.060725   0.316902   0.358646
     2  C   -0.030016   0.177320  -0.128739  -0.017899
     3  H   -0.015600   0.000133  -0.000009   0.000072
     4  H    0.361745   0.000000   0.000000   0.000000
     5  H    0.366026  -0.000012   0.000000   0.000000
     6  Sn   0.526375  -0.033031   0.000853   0.002809
     7  Sn   2.472530   0.002673  -0.000069   0.000058
     8  F    0.002673   9.233055  -0.004643   0.001661
     9  Br  -0.000069  -0.004643   6.822320  -0.046248
    10  H    0.000058   0.001661  -0.046248   0.452146
 Mulliken atomic charges:
              1
     1  C   -0.490152
     2  C    0.118219
     3  H   -0.132827
     4  H   -0.129600
     5  H   -0.122230
     6  Sn   0.467686
     7  Sn   0.316948
     8  F   -0.316430
     9  Br   0.039632
    10  H    0.248754
 Sum of Mulliken atomic charges =   0.00000
 Mulliken charges with hydrogens summed into heavy atoms:
              1
     1  C   -0.241398
     2  C    0.118219
     6  Sn   0.334859
     7  Sn   0.065117
     8  F   -0.316430
     9  Br   0.039632
 Sum of Mulliken charges with hydrogens summed into heavy atoms =   0.00000
 Electronic spatial extent (au):  <R**2>=           1174.9977
 Charge=              0.0000 electrons
 Dipole moment (field-independent basis, Debye):
    X=              2.8725    Y=              2.1802    Z=             -0.4646  Tot=              3.6360
 Quadrupole moment (field-independent basis, Debye-Ang):
   XX=            -69.7616   YY=            -68.2049   ZZ=            -70.8675
   XY=             -5.4696   XZ=             -0.3676   YZ=             -0.0920
 Traceless Quadrupole moment (field-independent basis, Debye-Ang):
   XX=             -0.1503   YY=              1.4065   ZZ=             -1.2562
   XY=             -5.4696   XZ=             -0.3676   YZ=             -0.0920
 Octapole moment (field-independent basis, Debye-Ang**2):
  XXX=            123.2321  YYY=             12.0478  ZZZ=             -1.5822  XYY=             27.7116
  XXY=              2.0879  XXZ=             -0.8089  XZZ=             28.7224  YZZ=             -1.2541
  YYZ=             -1.8360  XYZ=              0.4280
 Hexadecapole moment (field-independent basis, Debye-Ang**3):
 XXXX=          -2997.9174 YYYY=           -363.6337 ZZZZ=           -149.2417 XXXY=            -14.3060
 XXXZ=              1.6648 YYYX=            -10.6949 YYYZ=             -5.8500 ZZZX=             -1.6012
 ZZZY=             -1.4051 XXYY=           -539.8228 XXZZ=           -535.0588 YYZZ=            -84.1927
 XXYZ=             -1.8542 YYXZ=              0.8651 ZZXY=             -1.8924
 N-N= 1.366254205533D+02 E-N=-7.298396434622D+02  KE= 1.838742978459D+02
   1 Symmetry operations used in ECPInt.
 ECPInt:  NShTT=     630 NPrTT=    3262 LenC2=     625 LenP2D=    2696.
 LDataN:  DoStor=T MaxTD1= 5 Len=  102
 Calling FoFJK, ICntrl=      2127 FMM=F ISym2X=0 I1Cent= 0 IOpClX= 0 NMat=1 NMatS=1 NMatT=0.
 ***** Axes restored to original set *****
 -------------------------------------------------------------------
 Center     Atomic                   Forces (Hartrees/Bohr)
 Number     Number              X              Y              Z
 -------------------------------------------------------------------
      1        6          -0.009703976   -0.022651881    0.000213827
      2        6          -0.013241527    0.039979020   -0.003659899
      3        1          -0.001016327    0.000313762    0.004213224
      4        1           0.000139877    0.000942198    0.002931377
      5        1          -0.000836514   -0.000343744    0.008006654
      6       50          -0.009613303    0.000890131    0.001438576
      7       50           0.003026239   -0.003735841   -0.014575598
      8        9           0.020067466   -0.022916832    0.001595052
      9       35           0.009492413    0.008304693    0.000084039
     10        1           0.001685653   -0.000781505   -0.000247253
 -------------------------------------------------------------------
 Cartesian Forces:  Max     0.039979020 RMS     0.011418619

 GradGradGradGradGradGradGradGradGradGradGradGradGradGradGradGradGradGrad
 Berny optimization.
 Internal  Forces:  Max     0.030212076 RMS     0.007704394
 Search for a local minimum.
 Step number   1 out of a maximum of   43
 All quantities printed in internal units (Hartrees-Bohrs-Radians)
 Mixed Optimization -- RFO/linear search
 Second derivative matrix not updated -- first step.
     Eigenvalues ---    0.00230   0.00230   0.00230   0.00746   0.01570
     Eigenvalues ---    0.02877   0.02877   0.11426   0.13078   0.13270
     Eigenvalues ---    0.13286   0.13996   0.15030   0.16000   0.16000
     Eigenvalues ---    0.16000   0.17771   0.22000   0.22292   0.25000
     Eigenvalues ---    0.25000   0.37230   0.55021   0.571211000.00000
     Eigenvalues --- 1000.000001000.000001000.000001000.000001000.00000
     Eigenvalues --- 1000.000001000.000001000.00000
 RFO step:  Lambda=-1.80410075D-02 EMin= 2.30000000D-03
 Linear search not attempted -- first point.
 Maximum step size (   0.300) exceeded in Quadratic search.
    -- Step size scaled by   0.365
 Iteration  1 RMS(Cart)=  0.05917187 RMS(Int)=  0.00575256
 Iteration  2 RMS(Cart)=  0.00509580 RMS(Int)=  0.00289561
 Iteration  3 RMS(Cart)=  0.00001293 RMS(Int)=  0.00289559
 Iteration  4 RMS(Cart)=  0.00000008 RMS(Int)=  0.00289559
 Variable       Old X    -DE/DX   Delta X   Delta X   Delta X     New X
                                 (Linear)    (Quad)   (Total)
    R1        2.53294  -0.01442   0.00000  -0.00894  -0.00894   2.52400
    R2        3.60938   0.01165   0.00000   0.02174   0.02174   3.63111
    R3        2.02201  -0.00173   0.00000  -0.00162  -0.00162   2.02038
    R4        3.96881   0.00844   0.00000   0.01951   0.01951   3.98831
    R5        2.55113   0.03021   0.00000   0.01942   0.01942   2.57056
    R6        3.20034  -0.00101   0.00000  -0.00248  -0.00248   3.19785
    R7        3.18793  -0.00042   0.00000  -0.00101  -0.00101   3.18692
    R8        3.18888  -0.00034   0.00000  -0.00082  -0.00082   3.18806
    R9        4.84760   0.00251   0.00000   0.00692   0.00692   4.85452
    A1        2.12020   0.01120   0.00000   0.01719   0.01719   2.13739
    A2        2.14630  -0.00493   0.00000  -0.00722  -0.00722   2.13908
    A3        2.01669  -0.00627   0.00000  -0.00997  -0.00997   2.00672
    A4        2.16671   0.00067   0.00000   0.00091   0.00090   2.16761
    A5        2.06987   0.00462   0.00000   0.00630   0.00629   2.07616
    A6        2.04660  -0.00529   0.00000  -0.00722  -0.00723   2.03937
    A7        1.87487   0.00366   0.00000   0.00757   0.00755   1.88241
    A8        2.17828  -0.00797   0.00000  -0.01075  -0.01076   2.16752
    A9        2.12623   0.00408   0.00000   0.00877   0.00876   2.13500
   A10        2.03938   0.00002   0.00000   0.00004  -0.00969   2.02969
   A11        2.11262  -0.00271   0.00000  -0.00556  -0.01499   2.09763
   A12        2.13119   0.00269   0.00000   0.00553  -0.00389   2.12729
    D1        3.14159  -0.00062   0.00000  -0.00634  -0.00635   3.13524
    D2        0.00000   0.00036   0.00000   0.00432   0.00434   0.00434
    D3        0.00000  -0.00070   0.00000  -0.00696  -0.00698  -0.00698
    D4        3.14159   0.00028   0.00000   0.00369   0.00371  -3.13788
    D5        0.47072  -0.00112   0.00000  -0.02020  -0.02021   0.45051
    D6        3.14159   0.00010   0.00000  -0.00508  -0.00510   3.13649
    D7       -2.67088  -0.00209   0.00000  -0.03072  -0.03069  -2.70157
    D8        0.00000  -0.00088   0.00000  -0.01560  -0.01559  -0.01559
    D9        3.14159  -0.00430   0.00000  -0.07979  -0.07876   3.06284
   D10        0.00000   0.01052   0.00000   0.18635   0.18530   0.18530
   D11       -0.53435  -0.00371   0.00000  -0.06402  -0.06297  -0.59732
   D12        2.60725   0.01111   0.00000   0.20211   0.20108   2.80833
         Item               Value     Threshold  Converged?
 Maximum Force            0.030212     0.000450     NO 
 RMS     Force            0.007704     0.000300     NO 
 Maximum Displacement     0.211871     0.001800     NO 
 RMS     Displacement     0.059286     0.001200     NO 
 Predicted change in Energy=-6.147827D-03
 GradGradGradGradGradGradGradGradGradGradGradGradGradGradGradGradGradGrad

                          Input orientation:                          
 ---------------------------------------------------------------------
 Center     Atomic      Atomic             Coordinates (Angstroms)
 Number     Number       Type             X           Y           Z
 ---------------------------------------------------------------------
      1          6           0        2.260916    2.974929    0.005591
      2          6           0        1.958459    1.674373   -0.026322
      3          1           0       -1.021508    2.097942   -0.695935
      4          1           0       -2.198432   -2.087541    0.008863
      5          1           0        0.579933   -2.780918    0.112117
      6         50           0       -0.010428    0.914267   -0.032400
      7         50           0       -0.592014   -1.586893   -0.104625
      8          9           0        2.968647    0.763578   -0.044518
      9         35           0        4.073598    3.612231    0.019856
     10          1           0        1.513525    3.739199    0.024542
 ---------------------------------------------------------------------
                    Distance matrix (angstroms):
                    1          2          3          4          5
     1  C    0.000000
     2  C    1.335644   0.000000
     3  H    3.469229   3.083504   0.000000
     4  H    6.746436   5.606512   4.404561   0.000000
     5  H    5.997235   4.665739   5.198157   2.865439   0.000000
     6  Sn   3.067046   2.110524   1.692232   3.714824   3.744837
     7  Sn   5.381596   4.140882   3.756610   1.686448   1.687048
     8  F    2.322384   1.360279   4.257489   5.901732   4.277142
     9  Br   1.921503   2.869014   5.363351   8.475016   7.286053
    10  H    1.069141   2.112832   3.104707   6.908674   6.587199
                    6          7          8          9         10
     6  Sn   0.000000
     7  Sn   2.568903   0.000000
     8  F    2.982908   4.266923   0.000000
     9  Br   4.894998   6.986725   3.056123   0.000000
    10  H    3.210283   5.728633   3.313076   2.563224   0.000000
 Stoichiometry    C2H4BrFSn2
 Framework group  C1[X(C2H4BrFSn2)]
 Deg. of freedom    24
 Full point group                 C1      NOp   1
 Largest Abelian subgroup         C1      NOp   1
 Largest concise Abelian subgroup C1      NOp   1
                         Standard orientation:                         
 ---------------------------------------------------------------------
 Center     Atomic      Atomic             Coordinates (Angstroms)
 Number     Number       Type             X           Y           Z
 ---------------------------------------------------------------------
      1          6           0       -2.429083    0.595944   -0.013375
      2          6           0       -1.277284   -0.080120    0.002145
      3          1           0        0.477952    2.374819    0.634934
      4          1           0        4.311716    0.343939   -0.125290
      5          1           0        2.900112   -2.148642   -0.197096
      6         50           0        0.629424    0.824311   -0.025846
      7         50           0        2.844623   -0.475881    0.014852
      8          9           0       -1.311995   -1.439754    0.025560
      9         35           0       -4.139340   -0.279797    0.003138
     10          1           0       -2.469054    1.664111   -0.035336
 ---------------------------------------------------------------------
 Rotational constants (GHZ):      2.9635756      0.2014096      0.1886697
 Standard basis: LANL2DZ (5D, 7F)
 There are    59 symmetry adapted basis functions of A   symmetry.
 Integral buffers will be    131072 words long.
 Raffenetti 1 integral format.
 Two-electron integral symmetry is turned on.
    59 basis functions,   127 primitive gaussians,    59 cartesian basis functions
    20 alpha electrons       20 beta electrons
       nuclear repulsion energy       136.1210478347 Hartrees.
 NAtoms=   10 NActive=   10 NUniq=   10 SFac= 7.50D-01 NAtFMM=   80 NAOKFM=F Big=F
 One-electron integrals computed using PRISM.
   1 Symmetry operations used in ECPInt.
 ECPInt:  NShTT=     630 NPrTT=    3262 LenC2=     625 LenP2D=    2696.
 LDataN:  DoStor=T MaxTD1= 4 Len=   56
 NBasis=    59 RedAO= T  NBF=    59
 NBsUse=    59 1.00D-06 NBFU=    59
 Initial guess read from the read-write file.
 B after Tr=     0.000000    0.000000    0.000000
         Rot=    1.000000    0.000000    0.000000    0.000000 Ang=   0.00 deg.
 Initial guess orbital symmetries:
       Occupied  (A) (A) (A) (A) (A) (A) (A) (A) (A) (A) (A) (A)
                 (A) (A) (A) (A) (A) (A) (A) (A)
       Virtual   (A) (A) (A) (A) (A) (A) (A) (A) (A) (A) (A) (A)
                 (A) (A) (A) (A) (A) (A) (A) (A) (A) (A) (A) (A)
                 (A) (A) (A) (A) (A) (A) (A) (A) (A) (A) (A) (A)
                 (A) (A) (A)
 Harris functional with IExCor=  205 diagonalized for initial guess.
 ExpMin= 6.30D-02 ExpMax= 1.00D+04 ExpMxC= 3.50D+02 IAcc=2 IRadAn=         0 AccDes= 0.00D+00
 HarFok:  IExCor=  205 AccDes= 0.00D+00 IRadAn=         0 IDoV= 1
 ScaDFX=  1.000000  1.000000  1.000000  1.000000
 Defaulting to unpruned grid for atomic number  50.
 Defaulting to unpruned grid for atomic number  50.
 Defaulting to unpruned grid for atomic number  50.
 Defaulting to unpruned grid for atomic number  50.
 Defaulting to unpruned grid for atomic number  50.
 Defaulting to unpruned grid for atomic number  50.
 Defaulting to unpruned grid for atomic number  50.
 Defaulting to unpruned grid for atomic number  50.
 Defaulting to unpruned grid for atomic number  50.
 Defaulting to unpruned grid for atomic number  50.
 Defaulting to unpruned grid for atomic number  50.
 Defaulting to unpruned grid for atomic number  50.
 Defaulting to unpruned grid for atomic number  50.
 Defaulting to unpruned grid for atomic number  50.
 Defaulting to unpruned grid for atomic number  50.
 Defaulting to unpruned grid for atomic number  50.
 Defaulting to unpruned grid for atomic number  50.
 Defaulting to unpruned grid for atomic number  50.
 Defaulting to unpruned grid for atomic number  50.
 Defaulting to unpruned grid for atomic number  50.
 FoFCou: FMM=F IPFlag=           0 FMFlag=      100000 FMFlg1=           0
         NFxFlg=           0 DoJE=T BraDBF=F KetDBF=T FulRan=T
         Omega=  0.000000  0.000000  1.000000  0.000000  0.000000 ICntrl=     500 IOpCl=  0
         NMat0=    1 NMatS0=    1 NMatT0=    0 NMatD0=    1 NMtDS0=    0 NMtDT0=    0
         I1Cent=           4 NGrid=           0.
 Petite list used in FoFCou.
 Requested convergence on RMS density matrix=1.00D-08 within 128 cycles.
 Requested convergence on MAX density matrix=1.00D-06.
 Requested convergence on             energy=1.00D-06.
 No special actions if energy rises.
 Keep R1 ints in memory in canonical form, NReq=2397586.
 SCF Done:  E(RHF) =  -196.766960969     A.U. after   13 cycles
             Convg  =    0.3692D-08             -V/T =  2.0703
   1 Symmetry operations used in ECPInt.
 ECPInt:  NShTT=     630 NPrTT=    3262 LenC2=     625 LenP2D=    2696.
 LDataN:  DoStor=T MaxTD1= 5 Len=  102
 Calling FoFJK, ICntrl=      2127 FMM=F ISym2X=0 I1Cent= 0 IOpClX= 0 NMat=1 NMatS=1 NMatT=0.
 ***** Axes restored to original set *****
 -------------------------------------------------------------------
 Center     Atomic                   Forces (Hartrees/Bohr)
 Number     Number              X              Y              Z
 -------------------------------------------------------------------
      1        6          -0.004938343   -0.016229610   -0.000270499
      2        6          -0.009520181    0.029151108   -0.004358835
      3        1          -0.000055011    0.000216253    0.001018818
      4        1          -0.000467994    0.000582935    0.002897429
      5        1          -0.000782512   -0.000177308    0.006474857
      6       50          -0.007157731    0.002615490    0.007713862
      7       50           0.002926867   -0.005038897   -0.014339916
      8        9           0.013823641   -0.016424441    0.000905817
      9       35           0.004858334    0.005161357    0.000537836
     10        1           0.001312930    0.000143114   -0.000579369
 -------------------------------------------------------------------
 Cartesian Forces:  Max     0.029151108 RMS     0.008507538

 GradGradGradGradGradGradGradGradGradGradGradGradGradGradGradGradGradGrad
 Berny optimization.
 Using GEDIIS/GDIIS optimizer.
 Internal  Forces:  Max     0.021251007 RMS     0.005623901
 Search for a local minimum.
 Step number   2 out of a maximum of   43
 All quantities printed in internal units (Hartrees-Bohrs-Radians)
 Mixed Optimization -- RFO/linear search
 Update second derivatives using D2CorX and points    1    2
 DE= -5.88D-03 DEPred=-6.15D-03 R= 9.57D-01
 SS=  1.41D+00  RLast= 2.99D-01 DXNew= 5.0454D-01 8.9584D-01
 Trust test= 9.57D-01 RLast= 2.99D-01 DXMaxT set to 5.05D-01
 Use linear search instead of GDIIS.
 Linear search step of   0.597 exceeds DXMaxT=   0.505 but not scaled.
 Quartic linear search produced a step of  2.00000.
 Iteration  1 RMS(Cart)=  0.07086068 RMS(Int)=  0.04825560
 Iteration  2 RMS(Cart)=  0.06503459 RMS(Int)=  0.01804424
 Iteration  3 RMS(Cart)=  0.00501031 RMS(Int)=  0.01741678
 Iteration  4 RMS(Cart)=  0.00022486 RMS(Int)=  0.01741634
 Iteration  5 RMS(Cart)=  0.00001590 RMS(Int)=  0.01741634
 Iteration  6 RMS(Cart)=  0.00000116 RMS(Int)=  0.01741634
 Iteration  7 RMS(Cart)=  0.00000008 RMS(Int)=  0.01741634
 Variable       Old X    -DE/DX   Delta X   Delta X   Delta X     New X
                                 (Linear)    (Quad)   (Total)
    R1        2.52400  -0.01037  -0.01788   0.00000  -0.01788   2.50612
    R2        3.63111   0.00630   0.04348   0.00000   0.04348   3.67459
    R3        2.02038  -0.00083  -0.00325   0.00000  -0.00325   2.01714
    R4        3.98831   0.00580   0.03901   0.00000   0.03901   4.02733
    R5        2.57056   0.02125   0.03885   0.00000   0.03885   2.60940
    R6        3.19785  -0.00022  -0.00497   0.00000  -0.00497   3.19289
    R7        3.18692   0.00047  -0.00202   0.00000  -0.00202   3.18491
    R8        3.18806   0.00041  -0.00164   0.00000  -0.00164   3.18642
    R9        4.85452   0.00427   0.01384   0.00000   0.01384   4.86836
    A1        2.13739   0.00722   0.03438   0.00000   0.03438   2.17177
    A2        2.13908  -0.00257  -0.01443   0.00000  -0.01443   2.12465
    A3        2.00672  -0.00465  -0.01995   0.00000  -0.01995   1.98677
    A4        2.16761   0.00217   0.00179   0.00000   0.00170   2.16931
    A5        2.07616   0.00268   0.01258   0.00000   0.01248   2.08864
    A6        2.03937  -0.00485  -0.01446   0.00000  -0.01455   2.02482
    A7        1.88241   0.00210   0.01510   0.00000   0.01498   1.89740
    A8        2.16752  -0.00683  -0.02152   0.00000  -0.02162   2.14591
    A9        2.13500   0.00320   0.01752   0.00000   0.01746   2.15245
   A10        2.02969   0.00009  -0.01939   0.00000  -0.08291   1.94677
   A11        2.09763  -0.00279  -0.02999   0.00000  -0.07846   2.01916
   A12        2.12729  -0.00011  -0.00779   0.00000  -0.05528   2.07201
    D1        3.13524  -0.00114  -0.01271   0.00000  -0.01282   3.12242
    D2        0.00434  -0.00013   0.00867   0.00000   0.00878   0.01312
    D3       -0.00698  -0.00100  -0.01396   0.00000  -0.01407  -0.02105
    D4       -3.13788   0.00001   0.00742   0.00000   0.00753  -3.13036
    D5        0.45051   0.00049  -0.04042   0.00000  -0.04049   0.41001
    D6        3.13649  -0.00155  -0.01021   0.00000  -0.01037   3.12612
    D7       -2.70157  -0.00046  -0.06138   0.00000  -0.06123  -2.76280
    D8       -0.01559  -0.00249  -0.03117   0.00000  -0.03110  -0.04669
    D9        3.06284  -0.00232  -0.15751   0.00000  -0.13907   2.92377
   D10        0.18530   0.01039   0.37060   0.00000   0.35205   0.53735
   D11       -0.59732  -0.00546  -0.12595   0.00000  -0.10740  -0.70472
   D12        2.80833   0.00725   0.40216   0.00000   0.38372  -3.09114
         Item               Value     Threshold  Converged?
 Maximum Force            0.021251     0.000450     NO 
 RMS     Force            0.005624     0.000300     NO 
 Maximum Displacement     0.397527     0.001800     NO 
 RMS     Displacement     0.117334     0.001200     NO 
 Predicted change in Energy=-6.933925D-03
 GradGradGradGradGradGradGradGradGradGradGradGradGradGradGradGradGradGrad

                          Input orientation:                          
 ---------------------------------------------------------------------
 Center     Atomic      Atomic             Coordinates (Angstroms)
 Number     Number       Type             X           Y           Z
 ---------------------------------------------------------------------
      1          6           0        2.267255    2.952457    0.014804
      2          6           0        1.963452    1.664811   -0.076975
      3          1           0       -1.071432    2.116971   -0.617485
      4          1           0       -2.149688   -2.053470    0.025857
      5          1           0        0.538280   -2.729860    0.322480
      6         50           0       -0.025095    0.898448   -0.092945
      7         50           0       -0.557222   -1.613133   -0.306800
      8          9           0        2.974695    0.726121   -0.131386
      9         35           0        4.080285    3.653856    0.060412
     10          1           0        1.512165    3.704966    0.069210
 ---------------------------------------------------------------------
                    Distance matrix (angstroms):
                    1          2          3          4          5
     1  C    0.000000
     2  C    1.326181   0.000000
     3  H    3.499237   3.115624   0.000000
     4  H    6.675988   5.545638   4.355354   0.000000
     5  H    5.947500   4.637220   5.192926   2.787590   0.000000
     6  Sn   3.079843   2.131169   1.689604   3.638933   3.695212
     7  Sn   5.378264   4.141441   3.778176   1.685379   1.686178
     8  F    2.340602   1.380837   4.306030   5.831821   4.252754
     9  Br   1.944509   2.907948   5.418648   8.449102   7.305225
    10  H    1.067422   2.094579   3.109381   6.824268   6.513032
                    6          7          8          9         10
     6  Sn   0.000000
     7  Sn   2.576225   0.000000
     8  F    3.004981   4.239966   0.000000
     9  Br   4.946710   7.027268   3.135403   0.000000
    10  H    3.204060   5.718909   3.324568   2.568643   0.000000
 Stoichiometry    C2H4BrFSn2
 Framework group  C1[X(C2H4BrFSn2)]
 Deg. of freedom    24
 Full point group                 C1      NOp   1
 Largest Abelian subgroup         C1      NOp   1
 Largest concise Abelian subgroup C1      NOp   1
                         Standard orientation:                         
 ---------------------------------------------------------------------
 Center     Atomic      Atomic             Coordinates (Angstroms)
 Number     Number       Type             X           Y           Z
 ---------------------------------------------------------------------
      1          6           0        2.424013    0.569362    0.004504
      2          6           0        1.273108   -0.089367   -0.011189
      3          1           0       -0.493547    2.419047   -0.553317
      4          1           0       -4.241234    0.385884    0.335610
      5          1           0       -2.886352   -2.029954    0.649740
      6         50           0       -0.643689    0.841177    0.031955
      7         50           0       -2.848940   -0.489035   -0.033901
      8          9           0        1.275920   -1.470176   -0.019629
      9         35           0        4.175040   -0.276186   -0.003988
     10          1           0        2.460196    1.636033    0.021612
 ---------------------------------------------------------------------
 Rotational constants (GHZ):      2.8602700      0.1993410      0.1864972
 Standard basis: LANL2DZ (5D, 7F)
 There are    59 symmetry adapted basis functions of A   symmetry.
 Integral buffers will be    131072 words long.
 Raffenetti 1 integral format.
 Two-electron integral symmetry is turned on.
    59 basis functions,   127 primitive gaussians,    59 cartesian basis functions
    20 alpha electrons       20 beta electrons
       nuclear repulsion energy       135.1890475547 Hartrees.
 NAtoms=   10 NActive=   10 NUniq=   10 SFac= 7.50D-01 NAtFMM=   80 NAOKFM=F Big=F
 One-electron integrals computed using PRISM.
   1 Symmetry operations used in ECPInt.
 ECPInt:  NShTT=     630 NPrTT=    3262 LenC2=     625 LenP2D=    2697.
 LDataN:  DoStor=T MaxTD1= 4 Len=   56
 NBasis=    59 RedAO= T  NBF=    59
 NBsUse=    59 1.00D-06 NBFU=    59
 Initial guess read from the read-write file.
 B after Tr=     0.000000    0.000000    0.000000
         Rot=    1.000000    0.000000    0.000000    0.000000 Ang=   0.00 deg.
 Initial guess orbital symmetries:
       Occupied  (A) (A) (A) (A) (A) (A) (A) (A) (A) (A) (A) (A)
                 (A) (A) (A) (A) (A) (A) (A) (A)
       Virtual   (A) (A) (A) (A) (A) (A) (A) (A) (A) (A) (A) (A)
                 (A) (A) (A) (A) (A) (A) (A) (A) (A) (A) (A) (A)
                 (A) (A) (A) (A) (A) (A) (A) (A) (A) (A) (A) (A)
                 (A) (A) (A)
 Harris functional with IExCor=  205 diagonalized for initial guess.
 ExpMin= 6.30D-02 ExpMax= 1.00D+04 ExpMxC= 3.50D+02 IAcc=2 IRadAn=         0 AccDes= 0.00D+00
 HarFok:  IExCor=  205 AccDes= 0.00D+00 IRadAn=         0 IDoV= 1
 ScaDFX=  1.000000  1.000000  1.000000  1.000000
 Defaulting to unpruned grid for atomic number  50.
 Defaulting to unpruned grid for atomic number  50.
 Defaulting to unpruned grid for atomic number  50.
 Defaulting to unpruned grid for atomic number  50.
 Defaulting to unpruned grid for atomic number  50.
 Defaulting to unpruned grid for atomic number  50.
 Defaulting to unpruned grid for atomic number  50.
 Defaulting to unpruned grid for atomic number  50.
 Defaulting to unpruned grid for atomic number  50.
 Defaulting to unpruned grid for atomic number  50.
 Defaulting to unpruned grid for atomic number  50.
 Defaulting to unpruned grid for atomic number  50.
 Defaulting to unpruned grid for atomic number  50.
 Defaulting to unpruned grid for atomic number  50.
 Defaulting to unpruned grid for atomic number  50.
 Defaulting to unpruned grid for atomic number  50.
 Defaulting to unpruned grid for atomic number  50.
 Defaulting to unpruned grid for atomic number  50.
 Defaulting to unpruned grid for atomic number  50.
 Defaulting to unpruned grid for atomic number  50.
 FoFCou: FMM=F IPFlag=           0 FMFlag=      100000 FMFlg1=           0
         NFxFlg=           0 DoJE=T BraDBF=F KetDBF=T FulRan=T
         Omega=  0.000000  0.000000  1.000000  0.000000  0.000000 ICntrl=     500 IOpCl=  0
         NMat0=    1 NMatS0=    1 NMatT0=    0 NMatD0=    1 NMtDS0=    0 NMtDT0=    0
         I1Cent=           4 NGrid=           0.
 Petite list used in FoFCou.
 Requested convergence on RMS density matrix=1.00D-08 within 128 cycles.
 Requested convergence on MAX density matrix=1.00D-06.
 Requested convergence on             energy=1.00D-06.
 No special actions if energy rises.
 Keep R1 ints in memory in canonical form, NReq=2397586.
 SCF Done:  E(RHF) =  -196.773961072     A.U. after   16 cycles
             Convg  =    0.3645D-08             -V/T =  2.0706
   1 Symmetry operations used in ECPInt.
 ECPInt:  NShTT=     630 NPrTT=    3262 LenC2=     625 LenP2D=    2697.
 LDataN:  DoStor=T MaxTD1= 5 Len=  102
 Calling FoFJK, ICntrl=      2127 FMM=F ISym2X=0 I1Cent= 0 IOpClX= 0 NMat=1 NMatS=1 NMatT=0.
 ***** Axes restored to original set *****
 -------------------------------------------------------------------
 Center     Atomic                   Forces (Hartrees/Bohr)
 Number     Number              X              Y              Z
 -------------------------------------------------------------------
      1        6           0.004497309   -0.002389436   -0.000254113
      2        6          -0.004000304    0.008087620   -0.005675453
      3        1           0.001358942    0.002285400   -0.004104239
      4        1          -0.003620017    0.000249740    0.002137900
      5        1           0.001617640   -0.000785964    0.003509214
      6       50          -0.000591584    0.006209821    0.016488858
      7       50           0.001434475   -0.010832228   -0.012197054
      8        9           0.002254252   -0.004037960    0.000298401
      9       35          -0.003527959   -0.000858236    0.000847099
     10        1           0.000577247    0.002071244   -0.001050614
 -------------------------------------------------------------------
 Cartesian Forces:  Max     0.016488858 RMS     0.005218188

 GradGradGradGradGradGradGradGradGradGradGradGradGradGradGradGradGradGrad
 Berny optimization.
 Using GEDIIS/GDIIS optimizer.
 Internal  Forces:  Max     0.011744212 RMS     0.003758051
 Search for a local minimum.
 Step number   3 out of a maximum of   43
 All quantities printed in internal units (Hartrees-Bohrs-Radians)
 Mixed Optimization -- RFO/linear search
 Update second derivatives using D2CorX and points    2    3
 Use linear search instead of GDIIS.
     Eigenvalues ---    0.00227   0.00282   0.01118   0.01605   0.01752
     Eigenvalues ---    0.02878   0.02886   0.10267   0.13061   0.13140
     Eigenvalues ---    0.13276   0.14117   0.15087   0.15695   0.16000
     Eigenvalues ---    0.16107   0.19065   0.21020   0.22275   0.24694
     Eigenvalues ---    0.25820   0.37274   0.48977   0.569371000.00000
     Eigenvalues --- 1000.000001000.000001000.000001000.000001000.00000
     Eigenvalues --- 1000.000001000.000001000.00000
 RFO step:  Lambda=-1.04237408D-02 EMin= 2.27121655D-03
 Quartic linear search produced a step of  0.44864.
 Maximum step size (   0.505) exceeded in Quadratic search.
    -- Step size scaled by   0.791
 Iteration  1 RMS(Cart)=  0.08486043 RMS(Int)=  0.03837737
 Iteration  2 RMS(Cart)=  0.05130206 RMS(Int)=  0.01192944
 Iteration  3 RMS(Cart)=  0.00365953 RMS(Int)=  0.01166687
 Iteration  4 RMS(Cart)=  0.00012914 RMS(Int)=  0.01166671
 Iteration  5 RMS(Cart)=  0.00000655 RMS(Int)=  0.01166670
 Iteration  6 RMS(Cart)=  0.00000034 RMS(Int)=  0.01166670
 Variable       Old X    -DE/DX   Delta X   Delta X   Delta X     New X
                                 (Linear)    (Quad)   (Total)
    R1        2.50612  -0.00082  -0.00802  -0.01477  -0.02279   2.48332
    R2        3.67459  -0.00358   0.01950   0.01846   0.03796   3.71255
    R3        2.01714   0.00100  -0.00146  -0.00049  -0.00195   2.01518
    R4        4.02733   0.00080   0.01750   0.03314   0.05065   4.07797
    R5        2.60940   0.00438   0.01743   0.03682   0.05425   2.66366
    R6        3.19289   0.00208  -0.00223   0.00854   0.00631   3.19920
    R7        3.18491   0.00378  -0.00091   0.02057   0.01966   3.20457
    R8        3.18642   0.00288  -0.00074   0.01541   0.01468   3.20109
    R9        4.86836   0.01174   0.00621   0.08780   0.09401   4.96237
    A1        2.17177   0.00009   0.01542   0.02693   0.04235   2.21412
    A2        2.12465   0.00179  -0.00647  -0.00301  -0.00948   2.11517
    A3        1.98677  -0.00188  -0.00895  -0.02392  -0.03287   1.95390
    A4        2.16931   0.00534   0.00076   0.01716   0.01768   2.18699
    A5        2.08864  -0.00081   0.00560   0.00718   0.01251   2.10115
    A6        2.02482  -0.00455  -0.00653  -0.02516  -0.03191   1.99290
    A7        1.89740  -0.00294   0.00672  -0.05094  -0.05826   1.83913
    A8        2.14591  -0.00306  -0.00970  -0.05322  -0.07517   2.07074
    A9        2.15245   0.00300   0.00783  -0.01677  -0.02493   2.12752
   A10        1.94677   0.00164  -0.03720  -0.01401  -0.09293   1.85384
   A11        2.01916  -0.00338  -0.03520  -0.04434  -0.10315   1.91601
   A12        2.07201  -0.00329  -0.02480  -0.02482  -0.07136   2.00065
    D1        3.12242  -0.00178  -0.00575  -0.04300  -0.04899   3.07343
    D2        0.01312  -0.00094   0.00394  -0.01100  -0.00682   0.00630
    D3       -0.02105  -0.00144  -0.00631  -0.03793  -0.04449  -0.06555
    D4       -3.13036  -0.00061   0.00338  -0.00594  -0.00231  -3.13267
    D5        0.41001   0.00238  -0.01817   0.09271   0.07032   0.48034
    D6        3.12612  -0.00366  -0.00465  -0.18788  -0.18884   2.93728
    D7       -2.76280   0.00163  -0.02747   0.06229   0.03113  -2.73166
    D8       -0.04669  -0.00441  -0.01395  -0.21830  -0.22804  -0.27472
    D9        2.92377   0.00217  -0.06239   0.16057   0.11311   3.03687
   D10        0.53735   0.00799   0.15794   0.27460   0.41509   0.95243
   D11       -0.70472  -0.00646  -0.04818  -0.17052  -0.20126  -0.90598
   D12       -3.09114  -0.00064   0.17215  -0.05650   0.10073  -2.99042
         Item               Value     Threshold  Converged?
 Maximum Force            0.011744     0.000450     NO 
 RMS     Force            0.003758     0.000300     NO 
 Maximum Displacement     0.352537     0.001800     NO 
 RMS     Displacement     0.120798     0.001200     NO 
 Predicted change in Energy=-6.368096D-03
 GradGradGradGradGradGradGradGradGradGradGradGradGradGradGradGradGradGrad

                          Input orientation:                          
 ---------------------------------------------------------------------
 Center     Atomic      Atomic             Coordinates (Angstroms)
 Number     Number       Type             X           Y           Z
 ---------------------------------------------------------------------
      1          6           0        2.271946    2.942949   -0.019953
      2          6           0        1.942948    1.670984   -0.047773
      3          1           0       -1.062092    2.122684   -0.522943
      4          1           0       -2.096206   -2.037713   -0.112999
      5          1           0        0.470531   -2.715238    0.436965
      6         50           0       -0.067391    0.899372    0.093610
      7         50           0       -0.484268   -1.635127   -0.452512
      8          9           0        2.941494    0.676961   -0.088361
      9         35           0        4.088456    3.691021   -0.037862
     10          1           0        1.527278    3.705274    0.018999
 ---------------------------------------------------------------------
                    Distance matrix (angstroms):
                    1          2          3          4          5
     1  C    0.000000
     2  C    1.314119   0.000000
     3  H    3.470107   3.075725   0.000000
     4  H    6.625436   5.483927   4.306547   0.000000
     5  H    5.955581   4.652088   5.164866   2.711022   0.000000
     6  Sn   3.108311   2.157970   1.692944   3.575646   3.670512
     7  Sn   5.361213   4.121354   3.802628   1.695785   1.693945
     8  F    2.363826   1.409548   4.278747   5.722629   4.229497
     9  Br   1.964597   2.946838   5.405843   8.430544   7.372584
    10  H    1.066390   2.077396   3.082714   6.791830   6.520305
                    6          7          8          9         10
     6  Sn   0.000000
     7  Sn   2.625971   0.000000
     8  F    3.022577   4.149001   0.000000
     9  Br   5.008159   7.032040   3.225310   0.000000
    10  H    3.228253   5.726126   3.343981   2.561849   0.000000
 Stoichiometry    C2H4BrFSn2
 Framework group  C1[X(C2H4BrFSn2)]
 Deg. of freedom    24
 Full point group                 C1      NOp   1
 Largest Abelian subgroup         C1      NOp   1
 Largest concise Abelian subgroup C1      NOp   1
                         Standard orientation:                         
 ---------------------------------------------------------------------
 Center     Atomic      Atomic             Coordinates (Angstroms)
 Number     Number       Type             X           Y           Z
 ---------------------------------------------------------------------
      1          6           0        2.419181    0.532906   -0.099614
      2          6           0        1.259302   -0.070062    0.034623
      3          1           0       -0.459205    2.342617   -0.793505
      4          1           0       -4.200988    0.427000    0.142346
      5          1           0       -2.941098   -1.801011    1.035811
      6         50           0       -0.659242    0.915985    0.095745
      7         50           0       -2.832440   -0.545551   -0.096206
      8          9           0        1.199645   -1.462843    0.243013
      9         35           0        4.195375   -0.305393   -0.054545
     10          1           0        2.479563    1.586956   -0.249681
 ---------------------------------------------------------------------
 Rotational constants (GHZ):      2.4961710      0.1989698      0.1849875
 Standard basis: LANL2DZ (5D, 7F)
 There are    59 symmetry adapted basis functions of A   symmetry.
 Integral buffers will be    131072 words long.
 Raffenetti 1 integral format.
 Two-electron integral symmetry is turned on.
    59 basis functions,   127 primitive gaussians,    59 cartesian basis functions
    20 alpha electrons       20 beta electrons
       nuclear repulsion energy       134.2010569294 Hartrees.
 NAtoms=   10 NActive=   10 NUniq=   10 SFac= 7.50D-01 NAtFMM=   80 NAOKFM=F Big=F
 One-electron integrals computed using PRISM.
   1 Symmetry operations used in ECPInt.
 ECPInt:  NShTT=     630 NPrTT=    3262 LenC2=     625 LenP2D=    2697.
 LDataN:  DoStor=T MaxTD1= 4 Len=   56
 NBasis=    59 RedAO= T  NBF=    59
 NBsUse=    59 1.00D-06 NBFU=    59
 Initial guess read from the read-write file.
 B after Tr=     0.000000    0.000000    0.000000
         Rot=    1.000000    0.000000    0.000000    0.000000 Ang=   0.00 deg.
 Initial guess orbital symmetries:
       Occupied  (A) (A) (A) (A) (A) (A) (A) (A) (A) (A) (A) (A)
                 (A) (A) (A) (A) (A) (A) (A) (A)
       Virtual   (A) (A) (A) (A) (A) (A) (A) (A) (A) (A) (A) (A)
                 (A) (A) (A) (A) (A) (A) (A) (A) (A) (A) (A) (A)
                 (A) (A) (A) (A) (A) (A) (A) (A) (A) (A) (A) (A)
                 (A) (A) (A)
 Harris functional with IExCor=  205 diagonalized for initial guess.
 ExpMin= 6.30D-02 ExpMax= 1.00D+04 ExpMxC= 3.50D+02 IAcc=2 IRadAn=         0 AccDes= 0.00D+00
 HarFok:  IExCor=  205 AccDes= 0.00D+00 IRadAn=         0 IDoV= 1
 ScaDFX=  1.000000  1.000000  1.000000  1.000000
 Defaulting to unpruned grid for atomic number  50.
 Defaulting to unpruned grid for atomic number  50.
 Defaulting to unpruned grid for atomic number  50.
 Defaulting to unpruned grid for atomic number  50.
 Defaulting to unpruned grid for atomic number  50.
 Defaulting to unpruned grid for atomic number  50.
 Defaulting to unpruned grid for atomic number  50.
 Defaulting to unpruned grid for atomic number  50.
 Defaulting to unpruned grid for atomic number  50.
 Defaulting to unpruned grid for atomic number  50.
 Defaulting to unpruned grid for atomic number  50.
 Defaulting to unpruned grid for atomic number  50.
 Defaulting to unpruned grid for atomic number  50.
 Defaulting to unpruned grid for atomic number  50.
 Defaulting to unpruned grid for atomic number  50.
 Defaulting to unpruned grid for atomic number  50.
 Defaulting to unpruned grid for atomic number  50.
 Defaulting to unpruned grid for atomic number  50.
 Defaulting to unpruned grid for atomic number  50.
 Defaulting to unpruned grid for atomic number  50.
 FoFCou: FMM=F IPFlag=           0 FMFlag=      100000 FMFlg1=           0
         NFxFlg=           0 DoJE=T BraDBF=F KetDBF=T FulRan=T
         Omega=  0.000000  0.000000  1.000000  0.000000  0.000000 ICntrl=     500 IOpCl=  0
         NMat0=    1 NMatS0=    1 NMatT0=    0 NMatD0=    1 NMtDS0=    0 NMtDT0=    0
         I1Cent=           4 NGrid=           0.
 Petite list used in FoFCou.
 Requested convergence on RMS density matrix=1.00D-08 within 128 cycles.
 Requested convergence on MAX density matrix=1.00D-06.
 Requested convergence on             energy=1.00D-06.
 No special actions if energy rises.
 Keep R1 ints in memory in canonical form, NReq=2397586.
 SCF Done:  E(RHF) =  -196.780898081     A.U. after   14 cycles
             Convg  =    0.7896D-08             -V/T =  2.0708
   1 Symmetry operations used in ECPInt.
 ECPInt:  NShTT=     630 NPrTT=    3262 LenC2=     625 LenP2D=    2697.
 LDataN:  DoStor=T MaxTD1= 5 Len=  102
 Calling FoFJK, ICntrl=      2127 FMM=F ISym2X=0 I1Cent= 0 IOpClX= 0 NMat=1 NMatS=1 NMatT=0.
 ***** Axes restored to original set *****
 -------------------------------------------------------------------
 Center     Atomic                   Forces (Hartrees/Bohr)
 Number     Number              X              Y              Z
 -------------------------------------------------------------------
      1        6           0.012871726    0.016152172   -0.000068679
      2        6           0.001007287   -0.020436468   -0.002512811
      3        1           0.000410517    0.004404110   -0.004270236
      4        1          -0.004685773   -0.001099938    0.001765632
      5        1           0.002470240   -0.002044062    0.002082941
      6       50           0.005903712    0.007215126    0.012738240
      7       50           0.000328768   -0.010816180   -0.009770770
      8        9          -0.008861356    0.010606237    0.000772624
      9       35          -0.008821705   -0.006382765    0.000313083
     10        1          -0.000623418    0.002401768   -0.001050025
 -------------------------------------------------------------------
 Cartesian Forces:  Max     0.020436468 RMS     0.007548802

 GradGradGradGradGradGradGradGradGradGradGradGradGradGradGradGradGradGrad
 Berny optimization.
 Using GEDIIS/GDIIS optimizer.
 Internal  Forces:  Max     0.015005063 RMS     0.005544335
 Search for a local minimum.
 Step number   4 out of a maximum of   43
 All quantities printed in internal units (Hartrees-Bohrs-Radians)
 Mixed Optimization -- RFO/linear search
 Update second derivatives using D2CorX and points    3    4
 DE= -6.94D-03 DEPred=-6.37D-03 R= 1.09D+00
 SS=  1.41D+00  RLast= 6.24D-01 DXNew= 8.4853D-01 1.8715D+00
 Trust test= 1.09D+00 RLast= 6.24D-01 DXMaxT set to 8.49D-01
 Use linear search instead of GDIIS.
     Eigenvalues ---    0.00220   0.00367   0.01331   0.01655   0.02409
     Eigenvalues ---    0.02892   0.02917   0.10016   0.13035   0.13190
     Eigenvalues ---    0.13276   0.13657   0.14315   0.15793   0.15978
     Eigenvalues ---    0.16291   0.18655   0.22102   0.22781   0.24636
     Eigenvalues ---    0.26022   0.37265   0.54388   0.601561000.00000
     Eigenvalues --- 1000.000001000.000001000.000001000.000001000.00000
     Eigenvalues --- 1000.000001000.000001000.00000
 RFO step:  Lambda=-5.59620544D-03 EMin= 2.19772608D-03
 Quartic linear search produced a step of  0.31719.
 Iteration  1 RMS(Cart)=  0.12408832 RMS(Int)=  0.01209059
 Iteration  2 RMS(Cart)=  0.02114997 RMS(Int)=  0.00533854
 Iteration  3 RMS(Cart)=  0.00030545 RMS(Int)=  0.00533662
 Iteration  4 RMS(Cart)=  0.00000120 RMS(Int)=  0.00533662
 Iteration  5 RMS(Cart)=  0.00000002 RMS(Int)=  0.00533662
 Variable       Old X    -DE/DX   Delta X   Delta X   Delta X     New X
                                 (Linear)    (Quad)   (Total)
    R1        2.48332   0.01262  -0.00723   0.01555   0.00832   2.49164
    R2        3.71255  -0.01059   0.01204  -0.04029  -0.02825   3.68430
    R3        2.01518   0.00211  -0.00062   0.00429   0.00368   2.01886
    R4        4.07797  -0.00312   0.01606  -0.00475   0.01132   4.08929
    R5        2.66366  -0.01378   0.01721  -0.00849   0.00872   2.67238
    R6        3.19920   0.00450   0.00200   0.03235   0.03435   3.23355
    R7        3.20457   0.00507   0.00624   0.03524   0.04148   3.24605
    R8        3.20109   0.00379   0.00466   0.02635   0.03101   3.23210
    R9        4.96237   0.01501   0.02982   0.13067   0.16049   5.12286
    A1        2.21412  -0.00710   0.01343  -0.01807  -0.00468   2.20943
    A2        2.11517   0.00479  -0.00301   0.01720   0.01415   2.12932
    A3        1.95390   0.00231  -0.01043   0.00090  -0.00957   1.94433
    A4        2.18699   0.00744   0.00561   0.03155   0.03709   2.22408
    A5        2.10115  -0.00532   0.00397  -0.01688  -0.01300   2.08815
    A6        1.99290  -0.00212  -0.01012  -0.01442  -0.02462   1.96828
    A7        1.83913  -0.00431  -0.01848  -0.04543  -0.07712   1.76201
    A8        2.07074  -0.00045  -0.02384  -0.03243  -0.06630   2.00443
    A9        2.12752   0.00144  -0.00791  -0.00863  -0.03241   2.09511
   A10        1.85384   0.00032  -0.02948  -0.03101  -0.07251   1.78133
   A11        1.91601  -0.00076  -0.03272  -0.02108  -0.05942   1.85659
   A12        2.00065  -0.00135  -0.02263  -0.01282  -0.04025   1.96039
    D1        3.07343  -0.00040  -0.01554  -0.00148  -0.01709   3.05634
    D2        0.00630  -0.00050  -0.00216  -0.00508  -0.00717  -0.00087
    D3       -0.06555  -0.00093  -0.01411  -0.02273  -0.03691  -0.10245
    D4       -3.13267  -0.00102  -0.00073  -0.02632  -0.02699   3.12352
    D5        0.48034   0.00057   0.02231  -0.06197  -0.04460   0.43574
    D6        2.93728  -0.00281  -0.05990  -0.16600  -0.22111   2.71617
    D7       -2.73166   0.00051   0.00987  -0.05881  -0.05372  -2.78538
    D8       -0.27472  -0.00288  -0.07233  -0.16283  -0.23023  -0.50495
    D9        3.03687   0.00202   0.03588   0.00830   0.04733   3.08420
   D10        0.95243   0.00307   0.13166   0.07225   0.19687   1.14930
   D11       -0.90598  -0.00441  -0.06384  -0.13057  -0.18736  -1.09334
   D12       -2.99042  -0.00336   0.03195  -0.06662  -0.03782  -3.02824
         Item               Value     Threshold  Converged?
 Maximum Force            0.015005     0.000450     NO 
 RMS     Force            0.005544     0.000300     NO 
 Maximum Displacement     0.364153     0.001800     NO 
 RMS     Displacement     0.136566     0.001200     NO 
 Predicted change in Energy=-4.448649D-03
 GradGradGradGradGradGradGradGradGradGradGradGradGradGradGradGradGradGrad

                          Input orientation:                          
 ---------------------------------------------------------------------
 Center     Atomic      Atomic             Coordinates (Angstroms)
 Number     Number       Type             X           Y           Z
 ---------------------------------------------------------------------
      1          6           0        2.265374    2.954085   -0.071304
      2          6           0        1.904506    1.690593    0.037592
      3          1           0       -1.024426    2.170995   -0.419254
      4          1           0       -2.059178   -2.066861   -0.187957
      5          1           0        0.450138   -2.760648    0.382902
      6         50           0       -0.099876    0.911257    0.278034
      7         50           0       -0.436748   -1.644194   -0.561703
      8          9           0        2.895081    0.683538    0.104340
      9         35           0        4.088898    3.638895   -0.154484
     10          1           0        1.548927    3.743506   -0.140995
 ---------------------------------------------------------------------
                    Distance matrix (angstroms):
                    1          2          3          4          5
     1  C    0.000000
     2  C    1.318521   0.000000
     3  H    3.399571   3.003021   0.000000
     4  H    6.627613   5.466271   4.368482   0.000000
     5  H    6.013282   4.695526   5.209500   2.665312   0.000000
     6  Sn   3.144772   2.163960   1.711123   3.595163   3.714351
     7  Sn   5.355943   4.118425   3.862813   1.717735   1.710355
     8  F    2.362788   1.414162   4.224833   5.674048   4.232938
     9  Br   1.949647   2.933316   5.326435   8.387825   7.381294
    10  H    1.068335   2.091120   3.028591   6.839663   6.617086
                    6          7          8          9         10
     6  Sn   0.000000
     7  Sn   2.710899   0.000000
     8  F    3.008621   4.118621   0.000000
     9  Br   5.017261   6.968381   3.197862   0.000000
    10  H    3.303902   5.757362   3.351974   2.542160   0.000000
 Stoichiometry    C2H4BrFSn2
 Framework group  C1[X(C2H4BrFSn2)]
 Deg. of freedom    24
 Full point group                 C1      NOp   1
 Largest Abelian subgroup         C1      NOp   1
 Largest concise Abelian subgroup C1      NOp   1
                         Standard orientation:                         
 ---------------------------------------------------------------------
 Center     Atomic      Atomic             Coordinates (Angstroms)
 Number     Number       Type             X           Y           Z
 ---------------------------------------------------------------------
      1          6           0        2.426785    0.518737   -0.215554
      2          6           0        1.256783    0.004190    0.108228
      3          1           0       -0.384328    2.265738   -0.991903
      4          1           0       -4.195789    0.375306   -0.000610
      5          1           0       -2.990190   -1.689182    1.177655
      6         50           0       -0.659557    1.008968    0.136246
      7         50           0       -2.805603   -0.622989   -0.146910
      8          9           0        1.185669   -1.323824    0.589036
      9         35           0        4.158101   -0.371023   -0.106047
     10          1           0        2.522310    1.511811   -0.597678
 ---------------------------------------------------------------------
 Rotational constants (GHZ):      2.1118607      0.2015235      0.1860365
 Standard basis: LANL2DZ (5D, 7F)
 There are    59 symmetry adapted basis functions of A   symmetry.
 Integral buffers will be    131072 words long.
 Raffenetti 1 integral format.
 Two-electron integral symmetry is turned on.
    59 basis functions,   127 primitive gaussians,    59 cartesian basis functions
    20 alpha electrons       20 beta electrons
       nuclear repulsion energy       134.2028989369 Hartrees.
 NAtoms=   10 NActive=   10 NUniq=   10 SFac= 7.50D-01 NAtFMM=   80 NAOKFM=F Big=F
 One-electron integrals computed using PRISM.
   1 Symmetry operations used in ECPInt.
 ECPInt:  NShTT=     630 NPrTT=    3262 LenC2=     625 LenP2D=    2699.
 LDataN:  DoStor=T MaxTD1= 4 Len=   56
 NBasis=    59 RedAO= T  NBF=    59
 NBsUse=    59 1.00D-06 NBFU=    59
 Initial guess read from the read-write file.
 B after Tr=     0.000000    0.000000    0.000000
         Rot=    1.000000    0.000000    0.000000    0.000000 Ang=   0.00 deg.
 Initial guess orbital symmetries:
       Occupied  (A) (A) (A) (A) (A) (A) (A) (A) (A) (A) (A) (A)
                 (A) (A) (A) (A) (A) (A) (A) (A)
       Virtual   (A) (A) (A) (A) (A) (A) (A) (A) (A) (A) (A) (A)
                 (A) (A) (A) (A) (A) (A) (A) (A) (A) (A) (A) (A)
                 (A) (A) (A) (A) (A) (A) (A) (A) (A) (A) (A) (A)
                 (A) (A) (A)
 Harris functional with IExCor=  205 diagonalized for initial guess.
 ExpMin= 6.30D-02 ExpMax= 1.00D+04 ExpMxC= 3.50D+02 IAcc=2 IRadAn=         0 AccDes= 0.00D+00
 HarFok:  IExCor=  205 AccDes= 0.00D+00 IRadAn=         0 IDoV= 1
 ScaDFX=  1.000000  1.000000  1.000000  1.000000
 Defaulting to unpruned grid for atomic number  50.
 Defaulting to unpruned grid for atomic number  50.
 Defaulting to unpruned grid for atomic number  50.
 Defaulting to unpruned grid for atomic number  50.
 Defaulting to unpruned grid for atomic number  50.
 Defaulting to unpruned grid for atomic number  50.
 Defaulting to unpruned grid for atomic number  50.
 Defaulting to unpruned grid for atomic number  50.
 Defaulting to unpruned grid for atomic number  50.
 Defaulting to unpruned grid for atomic number  50.
 Defaulting to unpruned grid for atomic number  50.
 Defaulting to unpruned grid for atomic number  50.
 Defaulting to unpruned grid for atomic number  50.
 Defaulting to unpruned grid for atomic number  50.
 Defaulting to unpruned grid for atomic number  50.
 Defaulting to unpruned grid for atomic number  50.
 Defaulting to unpruned grid for atomic number  50.
 Defaulting to unpruned grid for atomic number  50.
 Defaulting to unpruned grid for atomic number  50.
 Defaulting to unpruned grid for atomic number  50.
 FoFCou: FMM=F IPFlag=           0 FMFlag=      100000 FMFlg1=           0
         NFxFlg=           0 DoJE=T BraDBF=F KetDBF=T FulRan=T
         Omega=  0.000000  0.000000  1.000000  0.000000  0.000000 ICntrl=     500 IOpCl=  0
         NMat0=    1 NMatS0=    1 NMatT0=    0 NMatD0=    1 NMtDS0=    0 NMtDT0=    0
         I1Cent=           4 NGrid=           0.
 Petite list used in FoFCou.
 Requested convergence on RMS density matrix=1.00D-08 within 128 cycles.
 Requested convergence on MAX density matrix=1.00D-06.
 Requested convergence on             energy=1.00D-06.
 No special actions if energy rises.
 Keep R1 ints in memory in canonical form, NReq=2397586.
 SCF Done:  E(RHF) =  -196.785722293     A.U. after   14 cycles
             Convg  =    0.7437D-08             -V/T =  2.0709
   1 Symmetry operations used in ECPInt.
 ECPInt:  NShTT=     630 NPrTT=    3262 LenC2=     625 LenP2D=    2699.
 LDataN:  DoStor=T MaxTD1= 5 Len=  102
 Calling FoFJK, ICntrl=      2127 FMM=F ISym2X=0 I1Cent= 0 IOpClX= 0 NMat=1 NMatS=1 NMatT=0.
 ***** Axes restored to original set *****
 -------------------------------------------------------------------
 Center     Atomic                   Forces (Hartrees/Bohr)
 Number     Number              X              Y              Z
 -------------------------------------------------------------------
      1        6           0.006979636    0.011247360   -0.002669403
      2        6           0.002799767   -0.016404135    0.002028202
      3        1           0.000331623    0.002191746   -0.001325213
      4        1          -0.001688592   -0.000951566   -0.000429468
      5        1           0.001929789   -0.001107366   -0.000107063
      6       50           0.004604289    0.005267204    0.004225967
      7       50          -0.002178955   -0.006282657   -0.002442039
      8        9          -0.008088664    0.010958768    0.000019089
      9       35          -0.003374537   -0.004131656    0.000432456
     10        1          -0.001314356   -0.000787697    0.000267470
 -------------------------------------------------------------------
 Cartesian Forces:  Max     0.016404135 RMS     0.005204280

 GradGradGradGradGradGradGradGradGradGradGradGradGradGradGradGradGradGrad
 Berny optimization.
 Using GEDIIS/GDIIS optimizer.
 Internal  Forces:  Max     0.013468921 RMS     0.003761601
 Search for a local minimum.
 Step number   5 out of a maximum of   43
 All quantities printed in internal units (Hartrees-Bohrs-Radians)
 Mixed Optimization -- RFO/linear search
 Update second derivatives using D2CorX and points    4    5
 DE= -4.82D-03 DEPred=-4.45D-03 R= 1.08D+00
 SS=  1.41D+00  RLast= 4.92D-01 DXNew= 1.4270D+00 1.4749D+00
 Trust test= 1.08D+00 RLast= 4.92D-01 DXMaxT set to 1.43D+00
 Use linear search instead of GDIIS.
     Eigenvalues ---    0.00222   0.00376   0.01661   0.02238   0.02896
     Eigenvalues ---    0.02916   0.03224   0.08461   0.12448   0.12998
     Eigenvalues ---    0.13186   0.13252   0.13289   0.15247   0.16142
     Eigenvalues ---    0.16200   0.18050   0.21098   0.22438   0.24353
     Eigenvalues ---    0.24865   0.37252   0.49351   0.572111000.00000
     Eigenvalues --- 1000.000001000.000001000.000001000.000001000.00000
     Eigenvalues --- 1000.000001000.000001000.00000
 RFO step:  Lambda=-2.96569993D-03 EMin= 2.22094300D-03
 Quartic linear search produced a step of  0.42889.
 Iteration  1 RMS(Cart)=  0.15519574 RMS(Int)=  0.00993154
 Iteration  2 RMS(Cart)=  0.01857153 RMS(Int)=  0.00200432
 Iteration  3 RMS(Cart)=  0.00019046 RMS(Int)=  0.00200150
 Iteration  4 RMS(Cart)=  0.00000014 RMS(Int)=  0.00200150
 Variable       Old X    -DE/DX   Delta X   Delta X   Delta X     New X
                                 (Linear)    (Quad)   (Total)
    R1        2.49164   0.00685   0.00357   0.01414   0.01770   2.50935
    R2        3.68430  -0.00463  -0.01212  -0.02958  -0.04170   3.64260
    R3        2.01886   0.00028   0.00158   0.00023   0.00181   2.02067
    R4        4.08929  -0.00247   0.00485  -0.02834  -0.02349   4.06581
    R5        2.67238  -0.01347   0.00374  -0.03816  -0.03442   2.63796
    R6        3.23355   0.00197   0.01473   0.00861   0.02335   3.25690
    R7        3.24605   0.00174   0.01779   0.00307   0.02086   3.26691
    R8        3.23210   0.00166   0.01330   0.00640   0.01970   3.25180
    R9        5.12286   0.00903   0.06883   0.05034   0.11918   5.24203
    A1        2.20943  -0.00559  -0.00201  -0.03501  -0.03705   2.17238
    A2        2.12932   0.00126   0.00607   0.00132   0.00735   2.13667
    A3        1.94433   0.00433  -0.00410   0.03393   0.02979   1.97412
    A4        2.22408   0.00389   0.01591   0.01072   0.02662   2.25070
    A5        2.08815  -0.00435  -0.00557  -0.02069  -0.02626   2.06189
    A6        1.96828   0.00048  -0.01056   0.01022  -0.00034   1.96794
    A7        1.76201  -0.00236  -0.03308  -0.01007  -0.04846   1.71355
    A8        2.00443   0.00158  -0.02844   0.01776  -0.01430   1.99013
    A9        2.09511   0.00008  -0.01390  -0.00524  -0.02549   2.06962
   A10        1.78133   0.00054  -0.03110   0.05638   0.02153   1.80286
   A11        1.85659   0.00279  -0.02548   0.07214   0.04471   1.90130
   A12        1.96039   0.00093  -0.01726   0.04613   0.02711   1.98750
    D1        3.05634   0.00007  -0.00733   0.00234  -0.00500   3.05134
    D2       -0.00087  -0.00015  -0.00308  -0.00193  -0.00500  -0.00588
    D3       -0.10245   0.00025  -0.01583   0.02189   0.00605  -0.09640
    D4        3.12352   0.00003  -0.01158   0.01761   0.00605   3.12957
    D5        0.43574  -0.00069  -0.01913  -0.12954  -0.15072   0.28502
    D6        2.71617  -0.00139  -0.09483  -0.13248  -0.22529   2.49088
    D7       -2.78538  -0.00070  -0.02304  -0.12680  -0.15186  -2.93725
    D8       -0.50495  -0.00139  -0.09874  -0.12973  -0.22643  -0.73139
    D9        3.08420   0.00158   0.02030   0.06945   0.09030  -3.10869
   D10        1.14930  -0.00103   0.08444  -0.05852   0.02343   1.17273
   D11       -1.09334  -0.00028  -0.08036   0.06702  -0.01085  -1.10419
   D12       -3.02824  -0.00289  -0.01622  -0.06096  -0.07772  -3.10596
         Item               Value     Threshold  Converged?
 Maximum Force            0.013469     0.000450     NO 
 RMS     Force            0.003762     0.000300     NO 
 Maximum Displacement     0.499733     0.001800     NO 
 RMS     Displacement     0.165486     0.001200     NO 
 Predicted change in Energy=-2.340369D-03
 GradGradGradGradGradGradGradGradGradGradGradGradGradGradGradGradGradGrad

                          Input orientation:                          
 ---------------------------------------------------------------------
 Center     Atomic      Atomic             Coordinates (Angstroms)
 Number     Number       Type             X           Y           Z
 ---------------------------------------------------------------------
      1          6           0        2.255456    2.963160   -0.155194
      2          6           0        1.889604    1.719458    0.132295
      3          1           0       -0.981273    2.221774   -0.268124
      4          1           0       -2.082914   -2.116895   -0.306825
      5          1           0        0.463155   -2.839344    0.253229
      6         50           0       -0.087524    0.926778    0.435136
      7         50           0       -0.444639   -1.632961   -0.572380
      8          9           0        2.891429    0.776542    0.368788
      9         35           0        4.083364    3.565761   -0.260983
     10          1           0        1.546038    3.736895   -0.358771
 ---------------------------------------------------------------------
                    Distance matrix (angstroms):
                    1          2          3          4          5
     1  C    0.000000
     2  C    1.327890   0.000000
     3  H    3.322473   2.941869   0.000000
     4  H    6.682171   5.539976   4.476511   0.000000
     5  H    6.086723   4.778290   5.288960   2.705192   0.000000
     6  Sn   3.159889   2.151532   1.723478   3.714301   3.810513
     7  Sn   5.346857   4.145355   3.903783   1.728773   1.720779
     8  F    2.336732   1.395948   4.182364   5.794179   4.357120
     9  Br   1.927580   2.894146   5.239933   8.385563   7.375344
    10  H    1.069291   2.104575   2.948070   6.887587   6.692840
                    6          7          8          9         10
     6  Sn   0.000000
     7  Sn   2.773965   0.000000
     8  F    2.983476   4.221474   0.000000
     9  Br   4.984488   6.901194   3.097913   0.000000
    10  H    3.345979   5.730949   3.332133   2.544970   0.000000
 Stoichiometry    C2H4BrFSn2
 Framework group  C1[X(C2H4BrFSn2)]
 Deg. of freedom    24
 Full point group                 C1      NOp   1
 Largest Abelian subgroup         C1      NOp   1
 Largest concise Abelian subgroup C1      NOp   1
                         Standard orientation:                         
 ---------------------------------------------------------------------
 Center     Atomic      Atomic             Coordinates (Angstroms)
 Number     Number       Type             X           Y           Z
 ---------------------------------------------------------------------
      1          6           0        2.421829    0.492172   -0.351618
      2          6           0        1.269706    0.078559    0.162997
      3          1           0       -0.324533    2.210218   -1.089612
      4          1           0       -4.254677    0.254405   -0.213302
      5          1           0       -3.038001   -1.730934    1.163721
      6         50           0       -0.646399    1.057062    0.150152
      7         50           0       -2.794117   -0.669398   -0.168474
      8          9           0        1.266094   -1.106025    0.901522
      9         35           0        4.102796   -0.427725   -0.142554
     10          1           0        2.501084    1.383299   -0.937275
[...]
  Atom  AN      X      Y      Z        X      Y      Z        X      Y      Z
     1   6     0.00   0.00   0.00     0.00   0.00   0.00    -0.01  -0.06   0.07
     2   6     0.00   0.00   0.00     0.00   0.00   0.00     0.01   0.00   0.00
     3   1    -0.04  -0.13   0.20    -0.03  -0.09   0.15     0.00   0.00   0.00
     4   1     0.87  -0.41   0.08     0.05  -0.01  -0.02     0.00   0.00   0.00
     5   1    -0.01   0.07  -0.06    -0.11  -0.61   0.76     0.00   0.00   0.00
     6  50     0.00   0.00   0.00     0.00   0.00   0.00     0.00   0.00   0.00
     7  50    -0.01   0.00   0.00     0.00   0.01  -0.01     0.00   0.00   0.00
     8   9     0.00   0.00   0.00     0.00   0.00   0.00     0.00   0.00   0.00
     9  35     0.00   0.00   0.00     0.00   0.00   0.00     0.00   0.00   0.00
    10   1     0.00   0.00   0.00     0.00   0.00   0.00     0.03   0.65  -0.75

 -------------------
 - Thermochemistry -
 -------------------
 Temperature   298.150 Kelvin.  Pressure   1.00000 Atm.
 Atom     1 has atomic number  6 and mass  12.00000
 Atom     2 has atomic number  6 and mass  12.00000
 Atom     3 has atomic number  1 and mass   1.00783
 Atom     4 has atomic number  1 and mass   1.00783
 Atom     5 has atomic number  1 and mass   1.00783
 Atom     6 has atomic number 50 and mass 117.90180
 Atom     7 has atomic number 50 and mass 117.90180
 Atom     8 has atomic number  9 and mass  18.99840
 Atom     9 has atomic number 35 and mass  78.91834
 Atom    10 has atomic number  1 and mass   1.00783
 Molecular mass:   361.75164 amu.
 Principal axes and moments of inertia in atomic units:
                           1         2         3
     Eigenvalues --  1107.498318655.371819426.66018
           X            0.99999   0.00116  -0.00296
           Y           -0.00130   0.99880  -0.04902
           Z            0.00290   0.04903   0.99879
 This molecule is an asymmetric top.
 Rotational symmetry number  1.
 Warning -- assumption of classical behavior for rotation
           may cause significant error
 Rotational temperatures (Kelvin)      0.07821     0.01001     0.00919
 Rotational constants (GHZ):           1.62957     0.20851     0.19145
 Zero-point vibrational energy     120433.8 (Joules/Mol)
                                   28.78436 (Kcal/Mol)
 Warning -- explicit consideration of  12 degrees of freedom as
           vibrations may cause significant error
 Vibrational temperatures:     34.67    53.72   166.59   196.69   201.86
          (Kelvin)            257.48   270.32   362.62   439.74   520.48
                              739.11   802.75   914.76   979.27  1127.31
                             1203.01  1355.39  1559.15  1970.98  2563.69
                             2743.25  2754.32  2772.65  4979.86
 
 Zero-point correction=                           0.045871 (Hartree/Particle)
 Thermal correction to Energy=                    0.055805
 Thermal correction to Enthalpy=                  0.056749
 Thermal correction to Gibbs Free Energy=         0.005343
 Sum of electronic and zero-point Energies=           -196.742695
 Sum of electronic and thermal Energies=              -196.732761
 Sum of electronic and thermal Enthalpies=            -196.731816
 Sum of electronic and thermal Free Energies=         -196.783222
 
                     E (Thermal)             CV                S
                      KCal/Mol        Cal/Mol-Kelvin    Cal/Mol-Kelvin
 Total                   35.018             30.762            108.193
 Electronic               0.000              0.000              0.000
 Translational            0.889              2.981             43.551
 Rotational               0.889              2.981             32.869
 Vibrational             33.241             24.801             31.774
 Vibration     1          0.593              1.985              6.264
 Vibration     2          0.594              1.982              5.396
 Vibration     3          0.608              1.936              3.170
 Vibration     4          0.614              1.917              2.849
 Vibration     5          0.615              1.913              2.800
 Vibration     6          0.629              1.868              2.339
 Vibration     7          0.633              1.856              2.249
 Vibration     8          0.664              1.759              1.716
 Vibration     9          0.696              1.663              1.386
 Vibration    10          0.736              1.551              1.115
 Vibration    11          0.869              1.220              0.625
 Vibration    12          0.913              1.122              0.528
                       Q            Log10(Q)             Ln(Q)
 Total Bot       0.348649D-02         -2.457612         -5.658860
 Total V=0       0.437972D+19         18.641446         42.923516
 Vib (Bot)       0.378859D-17        -17.421522        -40.114538
 Vib (Bot)    1  0.859512D+01          0.934252          2.151194
 Vib (Bot)    2  0.554296D+01          0.743742          1.712528
 Vib (Bot)    3  0.176664D+01          0.247148          0.569079
 Vib (Bot)    4  0.148871D+01          0.172811          0.397913
 Vib (Bot)    5  0.144916D+01          0.161116          0.370982
 Vib (Bot)    6  0.112273D+01          0.050277          0.115767
 Vib (Bot)    7  0.106605D+01          0.027779          0.063965
 Vib (Bot)    8  0.773629D+00         -0.111467         -0.256662
 Vib (Bot)    9  0.620253D+00         -0.207431         -0.477628
 Vib (Bot)   10  0.506086D+00         -0.295776         -0.681050
 Vib (Bot)   11  0.316023D+00         -0.500282         -1.151941
 Vib (Bot)   12  0.279125D+00         -0.554201         -1.276096
 Vib (V=0)       0.475922D+04          3.677535          8.467838
 Vib (V=0)    1  0.910965D+01          0.959502          2.209334
 Vib (V=0)    2  0.606546D+01          0.782864          1.802611
 Vib (V=0)    3  0.233603D+01          0.368479          0.848454
 Vib (V=0)    4  0.207044D+01          0.316062          0.727759
 Vib (V=0)    5  0.203299D+01          0.308135          0.709507
 Vib (V=0)    6  0.172904D+01          0.237804          0.547565
 Vib (V=0)    7  0.167749D+01          0.224659          0.517296
 Vib (V=0)    8  0.142114D+01          0.152637          0.351461
 Vib (V=0)    9  0.129669D+01          0.112836          0.259814
 Vib (V=0)   10  0.121142D+01          0.083296          0.191796
 Vib (V=0)   11  0.109150D+01          0.038023          0.087551
 Vib (V=0)   12  0.107263D+01          0.030452          0.070118
 Electronic      0.100000D+01          0.000000          0.000000
 Translational   0.270440D+09          8.432071         19.415561
 Rotational      0.340283D+07          6.531840         15.040117
 ***** Axes restored to original set *****
 -------------------------------------------------------------------
 Center     Atomic                   Forces (Hartrees/Bohr)
 Number     Number              X              Y              Z
 -------------------------------------------------------------------
      1        6           0.000000979    0.000011409   -0.000029817
      2        6          -0.000013150   -0.000006119    0.000018978
      3        1           0.000002670    0.000001287    0.000001870
      4        1           0.000004483   -0.000005054   -0.000005158
      5        1           0.000006032    0.000008943    0.000005887
      6       50           0.000008312   -0.000003699   -0.000002172
      7       50          -0.000017823   -0.000005957   -0.000004145
      8        9           0.000000373   -0.000010122    0.000005499
      9       35           0.000004992    0.000003189   -0.000002352
     10        1           0.000003134    0.000006123    0.000011410
 -------------------------------------------------------------------
 Cartesian Forces:  Max     0.000029817 RMS     0.000009372

 GradGradGradGradGradGradGradGradGradGradGradGradGradGradGradGradGradGrad
 Berny optimization.
 Internal  Forces:  Max     0.000036748 RMS     0.000010977
 Search for a local minimum.
 Step number   1 out of a maximum of    2
 All quantities printed in internal units (Hartrees-Bohrs-Radians)
 Second derivative matrix not updated -- analytic derivatives used.
     Eigenvalues ---    0.00327   0.00573   0.00912   0.01601   0.02825
     Eigenvalues ---    0.03979   0.04205   0.05087   0.05637   0.06568
     Eigenvalues ---    0.07068   0.09556   0.11184   0.12658   0.13651
     Eigenvalues ---    0.13845   0.13937   0.14124   0.17121   0.22511
     Eigenvalues ---    0.24085   0.39143   0.42070   0.722421000.00000
     Eigenvalues --- 1000.000001000.000001000.000001000.000001000.00000
     Eigenvalues --- 1000.000001000.000001000.00000
 Angle between quadratic step and forces=  52.09 degrees.
 Linear search not attempted -- first point.
 Iteration  1 RMS(Cart)=  0.00130421 RMS(Int)=  0.00000064
 Iteration  2 RMS(Cart)=  0.00000064 RMS(Int)=  0.00000006
 Variable       Old X    -DE/DX   Delta X   Delta X   Delta X     New X
                                 (Linear)    (Quad)   (Total)
    R1        2.50575   0.00003   0.00000   0.00003   0.00003   2.50578
    R2        3.66373   0.00001   0.00000   0.00003   0.00003   3.66376
    R3        2.01822   0.00000   0.00000   0.00000   0.00000   2.01821
    R4        4.08776   0.00000   0.00000   0.00001   0.00001   4.08777
    R5        2.63915   0.00001   0.00000   0.00004   0.00004   2.63919
    R6        3.26190   0.00000   0.00000  -0.00001  -0.00001   3.26189
    R7        3.25894   0.00000   0.00000  -0.00005  -0.00005   3.25889
    R8        3.25102   0.00000   0.00000   0.00001   0.00001   3.25103
    R9        5.32283   0.00000   0.00000   0.00009   0.00009   5.32292
    A1        2.17807   0.00000   0.00000   0.00001   0.00001   2.17808
    A2        2.12972   0.00000   0.00000   0.00002   0.00002   2.12973
    A3        1.97538   0.00000   0.00000  -0.00003  -0.00003   1.97536
    A4        2.23215   0.00001   0.00000   0.00015   0.00015   2.23230
    A5        2.06980   0.00001   0.00000   0.00001   0.00001   2.06980
    A6        1.98057  -0.00001   0.00000  -0.00014  -0.00014   1.98043
    A7        1.70133   0.00000   0.00000   0.00000   0.00000   1.70133
    A8        1.93267  -0.00001   0.00000  -0.00051  -0.00051   1.93215
    A9        1.98823   0.00001   0.00000   0.00053   0.00053   1.98876
   A10        1.77256   0.00000   0.00000   0.00006   0.00006   1.77262
   A11        1.95927   0.00003   0.00000   0.00079   0.00079   1.96006
   A12        2.01078  -0.00004   0.00000  -0.00096  -0.00096   2.00982
    D1        3.09667   0.00000   0.00000   0.00047   0.00047   3.09713
    D2       -0.00302   0.00000   0.00000  -0.00002  -0.00002  -0.00304
    D3       -0.05211   0.00001   0.00000   0.00071   0.00071  -0.05140
    D4        3.13139   0.00001   0.00000   0.00022   0.00022   3.13161
    D5        0.14083   0.00000   0.00000  -0.00037  -0.00037   0.14046
    D6        2.22017   0.00000   0.00000   0.00005   0.00005   2.22021
    D7       -3.04088   0.00000   0.00000   0.00010   0.00010  -3.04078
    D8       -0.96154   0.00000   0.00000   0.00052   0.00052  -0.96103
    D9        3.13274   0.00000   0.00000  -0.00079  -0.00079   3.13195
   D10        1.11524   0.00000   0.00000  -0.00078  -0.00078   1.11445
   D11       -1.25379   0.00000   0.00000  -0.00081  -0.00081  -1.25459
   D12        3.01190   0.00000   0.00000  -0.00080  -0.00080   3.01110
         Item               Value     Threshold  Converged?
 Maximum Force            0.000037     0.000450     YES
 RMS     Force            0.000011     0.000300     YES
 Maximum Displacement     0.003587     0.001800     NO 
 RMS     Displacement     0.001304     0.001200     NO 
 Predicted change in Energy=-4.688851D-08
 GradGradGradGradGradGradGradGradGradGradGradGradGradGradGradGradGradGrad

 1\1\GINC-MALLOS71\Freq\RHF\LANL2DZ\C2H4Br1F1Sn2\MARLIN\24-Oct-2024\0\\
 #N Geom=AllCheck Guess=TCheck SCRF=Check GenChk RHF/LANL2DZ Freq\\Titl
 e Card Required\\0,1\C,2.2447099095,2.8997799815,-0.2223647805\C,1.883
 1279543,1.7255787164,0.2763818113\H,-0.9682068581,2.2611979408,-0.1859
 071272\H,-2.0468817738,-2.1730591459,-0.3520091235\H,0.5192081329,-2.7
 963271544,0.0347712761\Sn,-0.1214817627,0.9830198627,0.6070779228\Sn,-
 0.4637714083,-1.537053685,-0.6037011916\F,2.8800236184,0.8422819864,0.
 6964064706\Br,4.0771488646,3.5029474901,-0.4151254343\H,1.5288189631,3
 .6128013874,-0.5683587037\\Version=EM64L-G09RevA.01\State=1-A\HF=-196.
 7885654\RMSD=2.457e-09\RMSF=9.372e-06\ZeroPoint=0.0458708\Thermal=0.05
 58048\Dipole=-1.4987368,-0.1468711,-0.3384616\DipoleDeriv=0.6999434,0.
 3979262,-0.0661931,0.3434902,0.1010825,-0.0826634,-0.1196548,-0.178807
 6,-0.2475556,-0.2839039,-0.9372535,0.3863919,-0.5216266,0.0988719,-0.1
 685129,0.3933035,0.3142971,0.2795311,-0.3197961,-0.0824819,0.0010858,0
 .1181338,-0.3653278,0.1049731,-0.0239795,0.4450604,0.003237,-0.4106657
 ,-0.1845797,-0.0645004,-0.1738808,-0.3507185,0.037524,0.1247837,0.3743
 802,0.0316141,-0.2468146,-0.0044562,-0.0105754,0.070685,-0.4352735,0.0
 613242,0.0263578,0.4357689,0.0404764,1.2185228,0.7346834,0.0368034,0.2
 304752,0.8938209,-0.1806753,-0.2376066,-0.8849097,0.0726329,0.7023367,
 0.1368298,0.0569628,0.0698046,0.8220284,-0.1094235,-0.1588462,-0.83596
 22,-0.001095,-0.6050444,0.4297143,-0.3464698,0.1065212,-0.6254618,0.24
 52926,-0.0641808,0.2128962,-0.3322587,-0.5881005,-0.426717,0.0165152,-
 0.202824,-0.2493298,0.0215397,0.0435093,0.0398129,-0.038117,-0.1664775
 ,-0.0636654,-0.0100204,-0.0407787,0.1103077,0.0706215,0.0163134,0.0774
 638,0.1915348\Polar=124.8662218,45.044593,184.6170904,6.1278036,43.104
 8577,85.5194203\HyperPolar=-389.2483347,-189.7297009,-221.5686421,-212
 .0033122,14.056462,-45.9718173,-160.6725864,-95.3668229,-129.8474037,-
 11.0468235\PG=C01 [X(C2H4Br1F1Sn2)]\NImag=0\\0.47760342,-0.02029718,0.
 81244510,0.02411989,-0.31168374,0.24563047,-0.12258965,-0.11627163,0.0
 4807005,0.44423548,-0.15259068,-0.51523052,0.19752779,0.07883470,0.705
 05556,0.06418296,0.19825182,-0.13814250,-0.02623351,-0.26428259,0.2114
 8776,0.00132459,-0.00031437,0.00027027,-0.00340462,0.00927067,-0.00613
 633,0.04640885,0.00083661,-0.00038248,0.00028751,-0.00085305,0.0013769
 2,-0.00042927,-0.04468947,0.08090612,-0.00053955,-0.00013116,0.0000877
 1,0.00139360,0.00064095,-0.00116763,0.02840795,-0.04380230,0.03297259,
 0.00035999,0.00026905,-0.00015917,-0.00015700,0.00016884,-0.00002497,0
 .00010128,-0.00016354,0.00021963,0.12010346,0.00000601,0.00020170,0.00
 001107,0.00050321,-0.00165950,-0.00219985,0.00025391,-0.00042906,-0.00
 098829,0.04143408,0.02985313,-0.00111527,-0.00067376,0.00040365,0.0006
 4552,-0.00131835,-0.00062346,0.00011555,-0.00113419,-0.00194928,-0.015
 03377,-0.00844118,0.00832399,0.00016747,-0.00006557,0.00001387,-0.0002
 2607,0.00072994,-0.00012951,0.00016992,-0.00020062,-0.00071236,-0.0069
 8153,0.00839949,-0.00474714,0.05709888,0.00023545,0.00019703,-0.000052
 10,0.00015010,-0.00067291,-0.00070860,-0.00007714,-0.00098959,-0.00221
 498,-0.00283774,0.00372889,-0.00045634,-0.05319190,0.07986445,-0.00041
 624,-0.00068311,0.00046485,0.00029717,0.00036708,-0.00281755,-0.000690
 41,-0.00215886,-0.00070986,0.00196361,-0.00036259,0.00094481,0.0276920
 2,-0.03578547,0.02274476,-0.00757943,-0.00152643,0.00017483,-0.1016366
 4,-0.03993849,0.02240852,-0.03819865,0.04480689,-0.03125275,-0.0000134
 8,-0.00342715,-0.00322529,0.00046200,0.00260978,-0.00051608,0.15960840
 ,-0.01437051,-0.00321874,0.00217886,-0.03720508,-0.03212175,0.01121659
 ,0.03434548,-0.08541419,0.05183393,0.00201185,0.00414817,-0.00179119,0
 .00000281,0.00298467,-0.00308140,0.00305450,0.17122759,0.00489450,0.00
 222272,0.00322294,0.01571553,0.00201274,-0.01794386,-0.02284983,0.0397
 5859,-0.03323057,0.00149920,0.00715888,0.00284670,0.00118856,0.0081425
 2,0.00419069,0.01363978,-0.04969434,0.05759737,-0.00112432,0.00021256,
 0.00002152,0.00076499,-0.00609909,-0.00257875,0.00046904,0.00222703,0.
 00087422,-0.11314729,-0.04660974,0.02262583,-0.05092419,0.05395714,-0.
 02959900,-0.00781173,-0.00534634,-0.00225041,0.17233951,0.00099082,0.0
 0063190,-0.00035283,-0.00061320,0.00168131,-0.00218149,0.00049015,0.00
 250524,-0.00406763,-0.04061568,-0.03585459,0.01396727,0.04465515,-0.08
 531895,0.04205692,-0.00708767,-0.05069029,-0.01411787,0.00067064,0.166
 60991,0.00240795,0.00206386,-0.00117822,-0.00077553,0.00353029,0.00392
 789,0.00119757,0.00851929,0.00290319,0.01152972,0.00471200,-0.01006823
 ,-0.02337848,0.03108318,-0.02497253,-0.00010413,-0.01537033,-0.0175454
 0,0.01061009,-0.03535713,0.04736639,-0.01097445,-0.00084942,-0.0001465
 7,-0.18674600,0.12601048,-0.05797653,-0.00631973,-0.00199499,0.0012307
 3,-0.00000548,-0.00020915,0.00038418,0.00020607,-0.00050608,0.00062260
 ,-0.01111326,0.01808111,-0.01012490,-0.00026325,0.00055050,-0.00093501
 ,0.20514557,0.05495123,-0.04037369,0.02195927,0.08636830,-0.14392789,0
 .04876748,0.00042731,0.00162730,-0.00082341,-0.00021721,0.00009969,-0.
 00010837,-0.00034339,0.00025496,-0.00057862,0.00000645,-0.00457937,0.0
 0371536,0.00119678,-0.00000690,0.00082148,-0.13849945,0.18866134,-0.02
 439232,0.01975647,-0.00359483,-0.04251476,0.05100097,-0.06207681,-0.00
 031328,-0.00040826,0.00129446,-0.00000061,0.00001487,0.00009413,0.0000
 7429,-0.00002793,0.00017200,-0.00045052,0.00295574,0.00029530,0.000098
 17,0.00026877,-0.00029923,0.06572427,-0.07740159,0.05874140,-0.1299804
 3,-0.02971509,0.00917516,-0.03765380,-0.00437481,0.00061341,-0.0004254
 7,0.00014279,0.00026956,-0.00021007,-0.00029788,0.00029055,0.00002774,
 -0.00030104,0.00055973,0.00556012,0.00025705,-0.00195423,-0.00027177,0
 .00085746,-0.00045870,0.00774370,0.00088073,0.00026253,0.17776090,-0.0
 2698650,-0.04194038,0.00723977,-0.03270378,-0.00379451,0.00716085,-0.0
 0002600,0.00037987,0.00006671,-0.00006953,-0.00002203,0.00007448,0.000
 02038,-0.00005883,0.00034090,0.00198146,-0.00087745,0.00041586,-0.0000
 7340,0.00053506,-0.00024488,-0.00130564,0.00008826,-0.00277490,0.05254
 549,0.04157862,0.00775629,0.00697529,-0.02608973,0.01284688,0.00813284
 ,0.01133568,0.00008422,-0.00004515,0.00019463,0.00003604,0.00031436,0.
 00012424,-0.00000440,0.00014338,0.00017160,-0.00132554,0.00063120,0.00
 213861,0.00038825,-0.00008277,-0.00054626,0.00082281,-0.00269249,-0.00
 508806,-0.01663725,-0.01225867,0.01395838,-0.20720719,0.16855808,-0.08
 153984,0.00741331,-0.01201157,0.00587470,-0.00012520,-0.00011165,0.000
 10897,-0.00004989,-0.00005279,0.00005983,-0.00000030,-0.00003856,0.000
 08661,0.00072266,-0.00083087,0.00024178,-0.00003100,0.00010184,-0.0000
 9347,0.00232684,-0.00477074,0.00151223,-0.02255092,0.00661752,-0.00396
 729,0.21950168,0.15722475,-0.21232993,0.08288440,0.02179043,-0.0107067
 1,0.00440505,0.00031944,0.00041986,-0.00051383,0.00001989,-0.00006640,
 -0.00011838,-0.00000628,0.00001027,-0.00011487,-0.00047934,-0.00145863
 ,0.00038553,-0.00013557,-0.00009269,0.00024223,-0.00127736,-0.00184369
 ,0.00661585,-0.01999470,0.00411139,-0.00111799,-0.15746126,0.22195653,
 -0.07689820,0.08390159,-0.08080434,-0.00944495,0.00238827,-0.00397953,
 -0.00008571,-0.00058737,-0.00039525,-0.00002969,-0.00021928,-0.0000965
 5,0.00000315,-0.00012366,-0.00018876,0.00065118,0.00112093,-0.00157178
 ,-0.00018992,-0.00013325,0.00041241,0.00039841,0.00634089,0.01046164,0
 .00787924,-0.00002012,0.00380090,0.07771648,-0.09266800,0.07236124\\-0
 .00000098,-0.00001141,0.00002982,0.00001315,0.00000612,-0.00001898,-0.
 00000267,-0.00000129,-0.00000187,-0.00000448,0.00000505,0.00000516,-0.
 00000603,-0.00000894,-0.00000589,-0.00000831,0.00000370,0.00000217,0.0
 0001782,0.00000596,0.00000414,-0.00000037,0.00001012,-0.00000550,-0.00
 000499,-0.00000319,0.00000235,-0.00000313,-0.00000612,-0.00001141\\\@


 "MATHEMATICS IS THE ART OF GIVING THE SAME NAME
 TO DIFFERENT THINGS."
                    - H. POINCARE
 Job cpu time:  0 days  0 hours  0 minutes 45.3 seconds.
 File lengths (MBytes):  RWF=      9 Int=      0 D2E=      0 Chk=      1 Scr=      1
 Normal termination of Gaussian 09 at Thu Oct 24 12:12:32 2024.
