 Entering Gaussian System, Link 0=g09
 Initial command:
 /u/local/G09/g09/l1.exe /tmp1/marlin/22678.mallos00.local/Gau-14651.inp -scrdir=/tmp1/marlin/22678.mallos00.local/
 Entering Link 1 = /u/local/G09/g09/l1.exe PID=     14653.
  
 Copyright (c) 1988,1990,1992,1993,1995,1998,2003,2009, Gaussian, Inc.
                  All Rights Reserved.
  
 This is part of the Gaussian(R) 09 program.  It is based on
 the Gaussian(R) 03 system (copyright 2003, Gaussian, Inc.),
 the Gaussian(R) 98 system (copyright 1998, Gaussian, Inc.),
 the Gaussian(R) 94 system (copyright 1995, Gaussian, Inc.),
 the Gaussian 92(TM) system (copyright 1992, Gaussian, Inc.),
 the Gaussian 90(TM) system (copyright 1990, Gaussian, Inc.),
 the Gaussian 88(TM) system (copyright 1988, Gaussian, Inc.),
 the Gaussian 86(TM) system (copyright 1986, Carnegie Mellon
 University), and the Gaussian 82(TM) system (copyright 1983,
 Carnegie Mellon University). Gaussian is a federally registered
 trademark of Gaussian, Inc.
  
 This software contains proprietary and confidential information,
 including trade secrets, belonging to Gaussian, Inc.
  
 This software is provided under written license and may be
 used, copied, transmitted, or stored only in accord with that
 written license.
  
 The following legend is applicable only to US Government
 contracts under FAR:
  
                    RESTRICTED RIGHTS LEGEND
  
 Use, reproduction and disclosure by the US Government is
 subject to restrictions as set forth in subparagraphs (a)
 and (c) of the Commercial Computer Software - Restricted
 Rights clause in FAR 52.227-19.
  
 Gaussian, Inc.
 340 Quinnipiac St., Bldg. 40, Wallingford CT 06492
  
  
 ---------------------------------------------------------------
 Warning -- This program may not be used in any manner that
 competes with the business of Gaussian, Inc. or will provide
 assistance to any competitor of Gaussian, Inc.  The licensee
 of this program is prohibited from giving any competitor of
 Gaussian, Inc. access to this program.  By using this program,
 the user acknowledges that Gaussian, Inc. is engaged in the
 business of creating and licensing software in the field of
 computational chemistry and represents and warrants to the
 licensee that it is not a competitor of Gaussian, Inc. and that
 it will not use this program in any manner prohibited above.
 ---------------------------------------------------------------
  

 Cite this work as:
 Gaussian 09, Revision A.01,
 M. J. Frisch, G. W. Trucks, H. B. Schlegel, G. E. Scuseria, 
 M. A. Robb, J. R. Cheeseman, G. Scalmani, V. Barone, B. Mennucci, 
 G. A. Petersson, H. Nakatsuji, M. Caricato, X. Li, H. P. Hratchian, 
 A. F. Izmaylov, J. Bloino, G. Zheng, J. L. Sonnenberg, M. Hada, 
 M. Ehara, K. Toyota, R. Fukuda, J. Hasegawa, M. Ishida, T. Nakajima, 
 Y. Honda, O. Kitao, H. Nakai, T. Vreven, J. A. Montgomery, Jr., 
 J. E. Peralta, F. Ogliaro, M. Bearpark, J. J. Heyd, E. Brothers, 
 K. N. Kudin, V. N. Staroverov, R. Kobayashi, J. Normand, 
 K. Raghavachari, A. Rendell, J. C. Burant, S. S. Iyengar, J. Tomasi, 
 M. Cossi, N. Rega, J. M. Millam, M. Klene, J. E. Knox, J. B. Cross, 
 V. Bakken, C. Adamo, J. Jaramillo, R. Gomperts, R. E. Stratmann, 
 O. Yazyev, A. J. Austin, R. Cammi, C. Pomelli, J. W. Ochterski, 
 R. L. Martin, K. Morokuma, V. G. Zakrzewski, G. A. Voth, 
 P. Salvador, J. J. Dannenberg, S. Dapprich, A. D. Daniels, 
 O. Farkas, J. B. Foresman, J. V. Ortiz, J. Cioslowski, 
 and D. J. Fox, Gaussian, Inc., Wallingford CT, 2009.
 
 ******************************************
 Gaussian 09:  EM64L-G09RevA.01  8-May-2009
                24-Oct-2024 
 ******************************************
 %mem=206GB
 %nproc=20
 Will use up to   20 processors via shared memory.
 %chk=3-mp2.chk
 --------------------------------------------
 # opt freq=noraman mp2/lanl2dz geom=allcheck
 --------------------------------------------
 1/18=20,19=15,29=7,38=1/1,3;
 2/9=110,12=2,40=1/2;
 3/5=6,6=3,11=9,14=-4,16=1,25=1,30=1,71=1/1,2,3;
 4//1;
 5/5=2,38=5/2;
 8/6=4,10=1/1;
 9/15=2,16=-3/6;
 10/5=1/2;
 6/7=2,8=2,9=2,10=2/1;
 7/12=2/1,2,3,16;
 1/18=20,19=15/3(2);
 2/9=110/2;
 99//99;
 2/9=110/2;
 3/5=6,6=3,11=9,14=-2,16=1,25=1,30=1,71=1/1,2,3;
 4/5=5,16=3/1;
 5/5=2,38=5/2;
 8/6=4,10=1/1;
 9/15=2,16=-3/6;
 10/5=1/2;
 7/12=2/1,2,3,16;
 1/18=20,19=15/3(-8);
 2/9=110/2;
 6/7=2,8=2,9=2,10=2/1;
 99//99;
 -------------------
 Title Card Required
 -------------------
 Redundant internal coordinates taken from checkpoint file:
 3-mp2.chk
 Charge =  0 Multiplicity = 1
 C,0,2.2447099095,2.8997799815,-0.2223647805
 C,0,1.8831279543,1.7255787164,0.2763818113
 H,0,-0.9682068581,2.2611979408,-0.1859071272
 H,0,-2.0468817738,-2.1730591459,-0.3520091235
 H,0,0.5192081329,-2.7963271544,0.0347712761
 Sn,0,-0.1214817627,0.9830198627,0.6070779228
 Sn,0,-0.4637714083,-1.537053685,-0.6037011916
 F,0,2.8800236184,0.8422819864,0.6964064706
 Br,0,4.0771488646,3.5029474901,-0.4151254343
 H,0,1.5288189631,3.6128013874,-0.5683587037
 Recover connectivity data from disk.

 GradGradGradGradGradGradGradGradGradGradGradGradGradGradGradGradGradGrad
 Berny optimization.
 Initialization pass.
                           ----------------------------
                           !    Initial Parameters    !
                           ! (Angstroms and Degrees)  !
 --------------------------                            --------------------------
 ! Name  Definition              Value          Derivative Info.                !
 --------------------------------------------------------------------------------
 ! R1    R(1,2)                  1.326          estimate D2E/DX2                !
 ! R2    R(1,9)                  1.9388         estimate D2E/DX2                !
 ! R3    R(1,10)                 1.068          estimate D2E/DX2                !
 ! R4    R(2,6)                  2.1631         estimate D2E/DX2                !
 ! R5    R(2,8)                  1.3966         estimate D2E/DX2                !
 ! R6    R(3,6)                  1.7261         estimate D2E/DX2                !
 ! R7    R(4,7)                  1.7246         estimate D2E/DX2                !
 ! R8    R(5,7)                  1.7204         estimate D2E/DX2                !
 ! R9    R(6,7)                  2.8167         estimate D2E/DX2                !
 ! A1    A(2,1,9)              124.7941         estimate D2E/DX2                !
 ! A2    A(2,1,10)             122.0238         estimate D2E/DX2                !
 ! A3    A(9,1,10)             113.181          estimate D2E/DX2                !
 ! A4    A(1,2,6)              127.8929         estimate D2E/DX2                !
 ! A5    A(1,2,8)              118.5905         estimate D2E/DX2                !
 ! A6    A(6,2,8)              113.4785         estimate D2E/DX2                !
 ! A7    A(2,6,3)               97.4787         estimate D2E/DX2                !
 ! A8    A(2,6,7)              110.7336         estimate D2E/DX2                !
 ! A9    A(3,6,7)              113.9173         estimate D2E/DX2                !
 ! A10   A(4,7,5)              101.5604         estimate D2E/DX2                !
 ! A11   A(4,7,6)              112.2576         estimate D2E/DX2                !
 ! A12   A(5,7,6)              115.2093         estimate D2E/DX2                !
 ! D1    D(9,1,2,6)            177.4259         estimate D2E/DX2                !
 ! D2    D(9,1,2,8)             -0.173          estimate D2E/DX2                !
 ! D3    D(10,1,2,6)            -2.9854         estimate D2E/DX2                !
 ! D4    D(10,1,2,8)           179.4157         estimate D2E/DX2                !
 ! D5    D(1,2,6,3)              8.0688         estimate D2E/DX2                !
 ! D6    D(1,2,6,7)            127.2061         estimate D2E/DX2                !
 ! D7    D(8,2,6,3)           -174.2298         estimate D2E/DX2                !
 ! D8    D(8,2,6,7)            -55.0925         estimate D2E/DX2                !
 ! D9    D(2,6,7,4)            179.4928         estimate D2E/DX2                !
 ! D10   D(2,6,7,5)             63.8985         estimate D2E/DX2                !
 ! D11   D(3,6,7,4)            -71.8366         estimate D2E/DX2                !
 ! D12   D(3,6,7,5)            172.5691         estimate D2E/DX2                !
 --------------------------------------------------------------------------------
 Trust Radius=3.00D-01 FncErr=1.00D-07 GrdErr=1.00D-07
 Number of steps in this run=  43 maximum allowed number of steps= 100.
 GradGradGradGradGradGradGradGradGradGradGradGradGradGradGradGradGradGrad

                          Input orientation:                          
 ---------------------------------------------------------------------
 Center     Atomic      Atomic             Coordinates (Angstroms)
 Number     Number       Type             X           Y           Z
 ---------------------------------------------------------------------
      1          6           0        2.244710    2.899780   -0.222365
      2          6           0        1.883128    1.725579    0.276382
      3          1           0       -0.968207    2.261198   -0.185907
      4          1           0       -2.046882   -2.173059   -0.352009
      5          1           0        0.519208   -2.796327    0.034771
      6         50           0       -0.121482    0.983020    0.607078
      7         50           0       -0.463771   -1.537054   -0.603701
      8          9           0        2.880024    0.842282    0.696406
      9         35           0        4.077149    3.502947   -0.415125
     10          1           0        1.528819    3.612801   -0.568359
 ---------------------------------------------------------------------
                    Distance matrix (angstroms):
                    1          2          3          4          5
     1  C    0.000000
     2  C    1.325986   0.000000
     3  H    3.275966   2.937807   0.000000
     4  H    6.645921   5.571286   4.566592   0.000000
     5  H    5.957274   4.729301   5.276330   2.668872   0.000000
     6  Sn   3.156075   2.163149   1.726125   3.819404   3.875756
     7  Sn   5.212176   4.114274   3.854312   1.724555   1.720368
     8  F    2.341167   1.396580   4.195316   5.870763   4.387561
     9  Br   1.938763   2.907052   5.200971   8.350137   7.248601
    10  H    1.067994   2.097792   2.865002   6.805044   6.516134
                    6          7          8          9         10
     6  Sn   0.000000
     7  Sn   2.816721   0.000000
     8  F    3.006131   4.304937   0.000000
     9  Br   5.002343   6.786540   3.122139   0.000000
    10  H    3.319773   5.522017   3.331841   2.555295   0.000000
 Stoichiometry    C2H4BrFSn2
 Framework group  C1[X(C2H4BrFSn2)]
 Deg. of freedom    24
 Full point group                 C1      NOp   1
 Largest Abelian subgroup         C1      NOp   1
 Largest concise Abelian subgroup C1      NOp   1
                         Standard orientation:                         
 ---------------------------------------------------------------------
 Center     Atomic      Atomic             Coordinates (Angstroms)
 Number     Number       Type             X           Y           Z
 ---------------------------------------------------------------------
      1          6           0        2.345525    0.394294   -0.445657
      2          6           0        1.254720    0.165730    0.272772
      3          1           0       -0.345091    2.046396   -1.319210
      4          1           0       -4.285755   -0.015703   -0.283509
      5          1           0       -2.947876   -1.807388    1.173483
      6         50           0       -0.668479    1.143441    0.115920
      7         50           0       -2.731177   -0.753424   -0.168854
      8          9           0        1.315954   -0.780323    1.298281
      9         35           0        4.050250   -0.490290   -0.180659
     10          1           0        2.357725    1.098772   -1.248262
 ---------------------------------------------------------------------
 Rotational constants (GHZ):      1.6295657      0.2085111      0.1914508
 Standard basis: LANL2DZ (5D, 7F)
 There are    59 symmetry adapted basis functions of A   symmetry.
 Integral buffers will be    131072 words long.
 Raffenetti 1 integral format.
 Two-electron integral symmetry is turned on.
    59 basis functions,   127 primitive gaussians,    59 cartesian basis functions
    20 alpha electrons       20 beta electrons
       nuclear repulsion energy       134.6320955155 Hartrees.
 NAtoms=   10 NActive=   10 NUniq=   10 SFac= 7.50D-01 NAtFMM=   80 NAOKFM=F Big=F
 One-electron integrals computed using PRISM.
   1 Symmetry operations used in ECPInt.
 ECPInt:  NShTT=     630 NPrTT=    3262 LenC2=     625 LenP2D=    2699.
 LDataN:  DoStor=T MaxTD1= 4 Len=   56
 NBasis=    59 RedAO= T  NBF=    59
 NBsUse=    59 1.00D-06 NBFU=    59
 Harris functional with IExCor=  205 diagonalized for initial guess.
 ExpMin= 6.30D-02 ExpMax= 1.00D+04 ExpMxC= 3.50D+02 IAcc=2 IRadAn=         0 AccDes= 0.00D+00
 HarFok:  IExCor=  205 AccDes= 0.00D+00 IRadAn=         0 IDoV= 1
 ScaDFX=  1.000000  1.000000  1.000000  1.000000
 Defaulting to unpruned grid for atomic number  50.
 Defaulting to unpruned grid for atomic number  50.
 Defaulting to unpruned grid for atomic number  50.
 Defaulting to unpruned grid for atomic number  50.
 Defaulting to unpruned grid for atomic number  50.
 Defaulting to unpruned grid for atomic number  50.
 Defaulting to unpruned grid for atomic number  50.
 Defaulting to unpruned grid for atomic number  50.
 Defaulting to unpruned grid for atomic number  50.
 Defaulting to unpruned grid for atomic number  50.
 Defaulting to unpruned grid for atomic number  50.
 Defaulting to unpruned grid for atomic number  50.
 Defaulting to unpruned grid for atomic number  50.
 Defaulting to unpruned grid for atomic number  50.
 Defaulting to unpruned grid for atomic number  50.
 Defaulting to unpruned grid for atomic number  50.
 Defaulting to unpruned grid for atomic number  50.
 Defaulting to unpruned grid for atomic number  50.
 Defaulting to unpruned grid for atomic number  50.
 Defaulting to unpruned grid for atomic number  50.
 FoFCou: FMM=F IPFlag=           0 FMFlag=      100000 FMFlg1=           0
         NFxFlg=           0 DoJE=T BraDBF=F KetDBF=T FulRan=T
         Omega=  0.000000  0.000000  1.000000  0.000000  0.000000 ICntrl=     500 IOpCl=  0
         NMat0=    1 NMatS0=    1 NMatT0=    0 NMatD0=    1 NMtDS0=    0 NMtDT0=    0
         I1Cent=           4 NGrid=           0.
 Petite list used in FoFCou.
 Initial guess orbital symmetries:
       Occupied  (A) (A) (A) (A) (A) (A) (A) (A) (A) (A) (A) (A)
                 (A) (A) (A) (A) (A) (A) (A) (A)
       Virtual   (A) (A) (A) (A) (A) (A) (A) (A) (A) (A) (A) (A)
                 (A) (A) (A) (A) (A) (A) (A) (A) (A) (A) (A) (A)
                 (A) (A) (A) (A) (A) (A) (A) (A) (A) (A) (A) (A)
                 (A) (A) (A)
 The electronic state of the initial guess is 1-A.
 Requested convergence on RMS density matrix=1.00D-08 within 128 cycles.
 Requested convergence on MAX density matrix=1.00D-06.
 Requested convergence on             energy=1.00D-06.
 No special actions if energy rises.
 Keep R1 ints in memory in canonical form, NReq=2397586.
 SCF Done:  E(RHF) =  -196.788565413     A.U. after   16 cycles
             Convg  =    0.2633D-08             -V/T =  2.0708
 ExpMin= 6.30D-02 ExpMax= 1.00D+04 ExpMxC= 3.50D+02 IAcc=3 IRadAn=         5 AccDes= 0.00D+00
 HarFok:  IExCor=  205 AccDes= 0.00D+00 IRadAn=         5 IDoV=-2
 ScaDFX=  1.000000  1.000000  1.000000  1.000000
 Defaulting to unpruned grid for atomic number  50.
 Defaulting to unpruned grid for atomic number  50.
 Defaulting to unpruned grid for atomic number  50.
 Defaulting to unpruned grid for atomic number  50.
 Defaulting to unpruned grid for atomic number  50.
 Defaulting to unpruned grid for atomic number  50.
 Defaulting to unpruned grid for atomic number  50.
 Defaulting to unpruned grid for atomic number  50.
 Defaulting to unpruned grid for atomic number  50.
 Defaulting to unpruned grid for atomic number  50.
 Defaulting to unpruned grid for atomic number  50.
 Defaulting to unpruned grid for atomic number  50.
 Defaulting to unpruned grid for atomic number  50.
 Defaulting to unpruned grid for atomic number  50.
 Defaulting to unpruned grid for atomic number  50.
 Defaulting to unpruned grid for atomic number  50.
 Defaulting to unpruned grid for atomic number  50.
 Defaulting to unpruned grid for atomic number  50.
 Defaulting to unpruned grid for atomic number  50.
 Defaulting to unpruned grid for atomic number  50.
 Range of M.O.s used for correlation:     4    59
 NBasis=    59 NAE=    20 NBE=    20 NFC=     3 NFV=     0
 NROrb=     56 NOA=    17 NOB=    17 NVA=    39 NVB=    39
 Fully direct method using O(ONN) memory.
 JobTyp=1 Pass  1:  I=   4 to  20 NPSUse= 20 ParTrn=T ParDer=T DoDerP=T.
 Spin components of T(2) and E(2):
     alpha-alpha T2 =       0.2084622465D-01 E2=     -0.4551410861D-01
     alpha-beta  T2 =       0.1595732794D+00 E2=     -0.3130809313D+00
     beta-beta   T2 =       0.2084622465D-01 E2=     -0.4551410861D-01
 ANorm=    0.1096022686D+01
 E2 =    -0.4041091485D+00 EUMP2 =    -0.19719267456120D+03
          IDoAtm=1111111111
          Differentiating once with respect to electric field.
                with respect to dipole field.
          Differentiating once with respect to nuclear coordinates.
          Keep R1 ints in memory in canonical form, NReq=2368185.
          There are     1 degrees of freedom in the 1st order CPHF.  IDoFFX=0.
 LinEq1:  Iter=  0 NonCon=     1 RMS=9.47D-03 Max=1.01D-01
 AX will form     1 AO Fock derivatives at one time.
 LinEq1:  Iter=  1 NonCon=     1 RMS=3.71D-03 Max=3.24D-02
 LinEq1:  Iter=  2 NonCon=     1 RMS=1.22D-03 Max=1.27D-02
 LinEq1:  Iter=  3 NonCon=     1 RMS=2.50D-04 Max=1.99D-03
 LinEq1:  Iter=  4 NonCon=     1 RMS=8.54D-05 Max=8.39D-04
 LinEq1:  Iter=  5 NonCon=     1 RMS=2.71D-05 Max=2.02D-04
 LinEq1:  Iter=  6 NonCon=     1 RMS=8.17D-06 Max=9.92D-05
 LinEq1:  Iter=  7 NonCon=     1 RMS=3.04D-06 Max=3.19D-05
 LinEq1:  Iter=  8 NonCon=     1 RMS=9.06D-07 Max=7.29D-06
 LinEq1:  Iter=  9 NonCon=     1 RMS=2.32D-07 Max=3.65D-06
 LinEq1:  Iter= 10 NonCon=     1 RMS=5.41D-08 Max=4.95D-07
 LinEq1:  Iter= 11 NonCon=     1 RMS=1.32D-08 Max=1.05D-07
 LinEq1:  Iter= 12 NonCon=     1 RMS=2.19D-09 Max=1.17D-08
 LinEq1:  Iter= 13 NonCon=     1 RMS=4.12D-10 Max=2.95D-09
 LinEq1:  Iter= 14 NonCon=     0 RMS=5.62D-11 Max=3.00D-10
 Linear equations converged to 1.000D-10 1.000D-09 after    14 iterations.
 End of Minotr Frequency-dependent properties file   721 does not exist.
 End of Minotr Frequency-dependent properties file   722 does not exist.

 **********************************************************************

            Population analysis using the SCF density.

 **********************************************************************

 Orbital symmetries:
       Occupied  (A) (A) (A) (A) (A) (A) (A) (A) (A) (A) (A) (A)
                 (A) (A) (A) (A) (A) (A) (A) (A)
       Virtual   (A) (A) (A) (A) (A) (A) (A) (A) (A) (A) (A) (A)
                 (A) (A) (A) (A) (A) (A) (A) (A) (A) (A) (A) (A)
                 (A) (A) (A) (A) (A) (A) (A) (A) (A) (A) (A) (A)
                 (A) (A) (A)
 The electronic state is 1-A.
 Alpha  occ. eigenvalues --  -26.29474 -11.34203 -11.31091  -1.60565  -1.10225
 Alpha  occ. eigenvalues --   -0.97748  -0.79582  -0.72998  -0.67615  -0.67443
 Alpha  occ. eigenvalues --   -0.64923  -0.60924  -0.54345  -0.46936  -0.45979
 Alpha  occ. eigenvalues --   -0.44663  -0.41194  -0.40616  -0.37148  -0.29101
 Alpha virt. eigenvalues --   -0.04027   0.07320   0.07577   0.13066   0.14548
 Alpha virt. eigenvalues --    0.15552   0.17812   0.20790   0.25915   0.30022
 Alpha virt. eigenvalues --    0.31683   0.32799   0.33340   0.35309   0.36901
 Alpha virt. eigenvalues --    0.39701   0.46467   0.49691   0.52344   0.58822
 Alpha virt. eigenvalues --    0.60758   0.64013   0.71582   0.72159   0.76350
 Alpha virt. eigenvalues --    0.87651   1.00625   1.17656   1.20167   1.23554
 Alpha virt. eigenvalues --    1.25534   1.27713   1.28903   1.38665   1.50804
 Alpha virt. eigenvalues --    2.33064  12.16741  13.41376  19.73964
          Condensed to atoms (all electrons):
              1          2          3          4          5          6
     1  C    5.707348   0.195232   0.011235   0.000000   0.000006  -0.063013
     2  C    0.195232   5.548820  -0.035180   0.000060   0.000113   0.199153
     3  H    0.011235  -0.035180   0.888315   0.000017   0.000007   0.346329
     4  H    0.000000   0.000060   0.000017   0.876981  -0.012733  -0.007491
     5  H    0.000006   0.000113   0.000007  -0.012733   0.853181  -0.008446
     6  Sn  -0.063013   0.199153   0.346329  -0.007491  -0.008446   2.749722
     7  Sn  -0.002359  -0.023870  -0.009211   0.330719   0.340501   0.218406
     8  F   -0.055528   0.164979   0.000178   0.000000  -0.000004  -0.028639
     9  Br   0.321554  -0.122497   0.000004   0.000000   0.000000   0.001889
    10  H    0.358432  -0.012812  -0.001037   0.000000   0.000000  -0.001717
              7          8          9         10
     1  C   -0.002359  -0.055528   0.321554   0.358432
     2  C   -0.023870   0.164979  -0.122497  -0.012812
     3  H   -0.009211   0.000178   0.000004  -0.001037
     4  H    0.330719   0.000000   0.000000   0.000000
     5  H    0.340501  -0.000004   0.000000   0.000000
     6  Sn   0.218406  -0.028639   0.001889  -0.001717
     7  Sn   2.716620   0.002068   0.000001  -0.000055
     8  F    0.002068   9.273939  -0.003434   0.001605
     9  Br   0.000001  -0.003434   6.823385  -0.048140
    10  H   -0.000055   0.001605  -0.048140   0.449046
 Mulliken atomic charges:
              1
     1  C   -0.472906
     2  C    0.086003
     3  H   -0.200657
     4  H   -0.187554
     5  H   -0.172625
     6  Sn   0.593807
     7  Sn   0.427180
     8  F   -0.355163
     9  Br   0.027238
    10  H    0.254677
 Sum of Mulliken atomic charges =   0.00000
 Mulliken charges with hydrogens summed into heavy atoms:
              1
     1  C   -0.218228
     2  C    0.086003
     6  Sn   0.393150
     7  Sn   0.067001
     8  F   -0.355163
     9  Br   0.027238
 Sum of Mulliken charges with hydrogens summed into heavy atoms =   0.00000
 Electronic spatial extent (au):  <R**2>=           1168.1908
 Charge=              0.0000 electrons
 Dipole moment (field-independent basis, Debye):
    X=             -2.9231    Y=              1.7396    Z=             -1.9546  Tot=              3.9231
 Quadrupole moment (field-independent basis, Debye-Ang):
   XX=            -73.3389   YY=            -64.7949   ZZ=            -70.8601
   XY=              6.3644   XZ=              0.2977   YZ=              3.0671
 Traceless Quadrupole moment (field-independent basis, Debye-Ang):
   XX=             -3.6743   YY=              4.8697   ZZ=             -1.1955
   XY=              6.3644   XZ=              0.2977   YZ=              3.0671
 Octapole moment (field-independent basis, Debye-Ang**2):
  XXX=           -102.1743  YYY=              5.9755  ZZZ=             -5.9395  XYY=            -34.5074
  XXY=             -6.2296  XXZ=            -16.2529  XZZ=            -29.1901  YZZ=              3.6768
  YYZ=             -3.7609  XYZ=             -6.3275
 Hexadecapole moment (field-independent basis, Debye-Ang**3):
 XXXX=          -2991.2318 YYYY=           -367.0796 ZZZZ=           -226.0982 XXXY=             40.4925
 XXXZ=             53.4349 YYYX=             22.1107 YYYZ=             35.2996 ZZZX=             16.4403
 ZZZY=             24.5436 XXYY=           -515.4596 XXZZ=           -519.5733 YYZZ=           -108.2472
 XXYZ=             18.8300 YYXZ=             17.6355 ZZXY=             11.7269
 N-N= 1.346320955155D+02 E-N=-7.262907506956D+02  KE= 1.837848703799D+02
   1 Symmetry operations used in ECPInt.
 ECPInt:  NShTT=     630 NPrTT=    3262 LenC2=     625 LenP2D=    2699.
 LDataN:  DoStor=T MaxTD1= 5 Len=  102
 Calling FoFJK, ICntrl=      2127 FMM=F ISym2X=0 I1Cent= 0 IOpClX= 0 NMat=1 NMatS=1 NMatT=0.
 ***** Axes restored to original set *****
 -------------------------------------------------------------------
 Center     Atomic                   Forces (Hartrees/Bohr)
 Number     Number              X              Y              Z
 -------------------------------------------------------------------
      1        6           0.014350889    0.028601097   -0.011698970
      2        6          -0.032090869   -0.019930154    0.008129215
      3        1          -0.003240498    0.002513881   -0.001414108
      4        1          -0.004016612   -0.000242982    0.000343031
      5        1           0.003375033   -0.001852174    0.001690276
      6       50          -0.001643088   -0.008945541   -0.002432046
      7       50           0.001264567    0.008723344    0.001016799
      8        9           0.023963940   -0.022900272    0.010733360
      9       35           0.010203886    0.004042023   -0.001535567
     10        1          -0.012167249    0.009990778   -0.004831991
 -------------------------------------------------------------------
 Cartesian Forces:  Max     0.032090869 RMS     0.012222997

 GradGradGradGradGradGradGradGradGradGradGradGradGradGradGradGradGradGrad
 Berny optimization.
 Internal  Forces:  Max     0.047926986 RMS     0.011134021
 Search for a local minimum.
 Step number   1 out of a maximum of   43
 All quantities printed in internal units (Hartrees-Bohrs-Radians)
 Mixed Optimization -- RFO/linear search
 Second derivative matrix not updated -- first step.
     Eigenvalues ---    0.00230   0.00230   0.01715   0.03068   0.03068
     Eigenvalues ---    0.04001   0.04539   0.06747   0.11310   0.12042
     Eigenvalues ---    0.12108   0.12153   0.12273   0.16000   0.16000
     Eigenvalues ---    0.16000   0.16481   0.22000   0.23712   0.24991
     Eigenvalues ---    0.25000   0.37485   0.46192   0.604641000.00000
     Eigenvalues --- 1000.000001000.000001000.000001000.000001000.00000
     Eigenvalues --- 1000.000001000.000001000.00000
 RFO step:  Lambda=-9.33781386D-03 EMin= 2.30000000D-03
 Linear search not attempted -- first point.
 Iteration  1 RMS(Cart)=  0.04541505 RMS(Int)=  0.00030148
 Iteration  2 RMS(Cart)=  0.00057665 RMS(Int)=  0.00005525
 Iteration  3 RMS(Cart)=  0.00000016 RMS(Int)=  0.00005525
 Variable       Old X    -DE/DX   Delta X   Delta X   Delta X     New X
                                 (Linear)    (Quad)   (Total)
    R1        2.50575   0.04793   0.00000   0.07806   0.07806   2.58381
    R2        3.66373   0.01105   0.00000   0.06348   0.06348   3.72721
    R3        2.01822   0.01639   0.00000   0.04267   0.04267   2.06088
    R4        4.08776   0.00376   0.00000   0.02897   0.02897   4.11673
    R5        2.63915   0.03482   0.00000   0.07388   0.07388   2.71304
    R6        3.26190   0.00410   0.00000   0.03144   0.03144   3.29335
    R7        3.25894   0.00383   0.00000   0.02924   0.02924   3.28818
    R8        3.25102   0.00391   0.00000   0.02962   0.02962   3.28064
    R9        5.32283  -0.00732   0.00000  -0.09526  -0.09526   5.22757
    A1        2.17807   0.00295   0.00000   0.01284   0.01284   2.19090
    A2        2.12972  -0.00307   0.00000  -0.01588  -0.01588   2.11383
    A3        1.97538   0.00013   0.00000   0.00303   0.00302   1.97841
    A4        2.23215  -0.00407   0.00000  -0.01563  -0.01563   2.21652
    A5        2.06980   0.00371   0.00000   0.01438   0.01437   2.08417
    A6        1.98057   0.00036   0.00000   0.00144   0.00144   1.98201
    A7        1.70133   0.00205   0.00000   0.02579   0.02568   1.72701
    A8        1.93267   0.00023   0.00000   0.00529   0.00522   1.93788
    A9        1.98823  -0.00070   0.00000   0.00270   0.00249   1.99072
   A10        1.77256   0.00271   0.00000   0.01902   0.01901   1.79157
   A11        1.95927  -0.00164   0.00000  -0.00801  -0.00802   1.95125
   A12        2.01078  -0.00270   0.00000  -0.01435  -0.01435   1.99643
    D1        3.09667   0.00029   0.00000   0.00876   0.00877   3.10544
    D2       -0.00302   0.00016   0.00000   0.00259   0.00258  -0.00044
    D3       -0.05211   0.00015   0.00000   0.00529   0.00530  -0.04681
    D4        3.13139   0.00003   0.00000  -0.00088  -0.00089   3.13051
    D5        0.14083  -0.00017   0.00000  -0.00411  -0.00419   0.13664
    D6        2.22017   0.00016   0.00000   0.01392   0.01403   2.23419
    D7       -3.04088   0.00002   0.00000   0.00209   0.00198  -3.03890
    D8       -0.96154   0.00036   0.00000   0.02012   0.02020  -0.94135
    D9        3.13274  -0.00088   0.00000  -0.01353  -0.01352   3.11922
   D10        1.11524  -0.00138   0.00000  -0.02271  -0.02272   1.09252
   D11       -1.25379   0.00138   0.00000   0.02269   0.02269  -1.23109
   D12        3.01190   0.00088   0.00000   0.01350   0.01350   3.02540
         Item               Value     Threshold  Converged?
 Maximum Force            0.047927     0.000450     NO 
 RMS     Force            0.011134     0.000300     NO 
 Maximum Displacement     0.127026     0.001800     NO 
 RMS     Displacement     0.045642     0.001200     NO 
 Predicted change in Energy=-4.830023D-03
 GradGradGradGradGradGradGradGradGradGradGradGradGradGradGradGradGradGrad

                          Input orientation:                          
 ---------------------------------------------------------------------
 Center     Atomic      Atomic             Coordinates (Angstroms)
 Number     Number       Type             X           Y           Z
 ---------------------------------------------------------------------
      1          6           0        2.258227    2.913947   -0.220567
      2          6           0        1.893538    1.694649    0.279239
      3          1           0       -1.010707    2.240271   -0.202404
      4          1           0       -2.072711   -2.150666   -0.343536
      5          1           0        0.538117   -2.774952    0.054478
      6         50           0       -0.132966    0.954045    0.580167
      7         50           0       -0.470301   -1.523842   -0.602526
      8          9           0        2.909947    0.775063    0.706368
      9         35           0        4.109832    3.563074   -0.421495
     10          1           0        1.509720    3.629579   -0.562553
 ---------------------------------------------------------------------
                    Distance matrix (angstroms):
                    1          2          3          4          5
     1  C    0.000000
     2  C    1.367293   0.000000
     3  H    3.337679   2.994048   0.000000
     4  H    6.665017   5.559266   4.519745   0.000000
     5  H    5.949622   4.676005   5.255217   2.713774   0.000000
     6  Sn   3.193775   2.178480   1.742764   3.775588   3.825196
     7  Sn   5.223479   4.089491   3.823700   1.740029   1.736041
     8  F    2.420491   1.435676   4.283017   5.872740   4.318929
     9  Br   1.972353   2.982280   5.293177   8.418832   7.290698
    10  H    1.090571   2.144734   2.900420   6.803897   6.507132
                    6          7          8          9         10
     6  Sn   0.000000
     7  Sn   2.766312   0.000000
     8  F    3.050784   4.292347   0.000000
     9  Br   5.080521   6.847415   3.238025   0.000000
    10  H    3.341064   5.520854   3.423312   2.604784   0.000000
 Stoichiometry    C2H4BrFSn2
 Framework group  C1[X(C2H4BrFSn2)]
 Deg. of freedom    24
 Full point group                 C1      NOp   1
 Largest Abelian subgroup         C1      NOp   1
 Largest concise Abelian subgroup C1      NOp   1
                         Standard orientation:                         
 ---------------------------------------------------------------------
 Center     Atomic      Atomic             Coordinates (Angstroms)
 Number     Number       Type             X           Y           Z
 ---------------------------------------------------------------------
      1          6           0        2.358956    0.415823   -0.425401
      2          6           0        1.233590    0.143445    0.301821
      3          1           0       -0.400093    2.083761   -1.288958
      4          1           0       -4.292646    0.015561   -0.289617
      5          1           0       -2.920327   -1.826890    1.154919
      6         50           0       -0.706468    1.119358    0.129945
      7         50           0       -2.729168   -0.741093   -0.186104
      8          9           0        1.284234   -0.855523    1.331707
      9         35           0        4.112356   -0.457238   -0.194039
     10          1           0        2.349037    1.161758   -1.220907
 ---------------------------------------------------------------------
 Rotational constants (GHZ):      1.6575601      0.2046064      0.1889351
 Standard basis: LANL2DZ (5D, 7F)
 There are    59 symmetry adapted basis functions of A   symmetry.
 Integral buffers will be    131072 words long.
 Raffenetti 1 integral format.
 Two-electron integral symmetry is turned on.
    59 basis functions,   127 primitive gaussians,    59 cartesian basis functions
    20 alpha electrons       20 beta electrons
       nuclear repulsion energy       132.0660773189 Hartrees.
 NAtoms=   10 NActive=   10 NUniq=   10 SFac= 7.50D-01 NAtFMM=   80 NAOKFM=F Big=F
 One-electron integrals computed using PRISM.
   1 Symmetry operations used in ECPInt.
 ECPInt:  NShTT=     630 NPrTT=    3262 LenC2=     625 LenP2D=    2696.
 LDataN:  DoStor=T MaxTD1= 4 Len=   56
 NBasis=    59 RedAO= T  NBF=    59
 NBsUse=    59 1.00D-06 NBFU=    59
 Initial guess read from the read-write file.
 B after Tr=     0.000000    0.000000    0.000000
         Rot=    1.000000    0.000000    0.000000    0.000000 Ang=   0.00 deg.
 Initial guess orbital symmetries:
       Occupied  (A) (A) (A) (A) (A) (A) (A) (A) (A) (A) (A) (A)
                 (A) (A) (A) (A) (A) (A) (A) (A)
       Virtual   (A) (A) (A) (A) (A) (A) (A) (A) (A) (A) (A) (A)
                 (A) (A) (A) (A) (A) (A) (A) (A) (A) (A) (A) (A)
                 (A) (A) (A) (A) (A) (A) (A) (A) (A) (A) (A) (A)
                 (A) (A) (A)
 Harris functional with IExCor=  205 diagonalized for initial guess.
 ExpMin= 6.30D-02 ExpMax= 1.00D+04 ExpMxC= 3.50D+02 IAcc=2 IRadAn=         0 AccDes= 0.00D+00
 HarFok:  IExCor=  205 AccDes= 0.00D+00 IRadAn=         0 IDoV= 1
 ScaDFX=  1.000000  1.000000  1.000000  1.000000
 Defaulting to unpruned grid for atomic number  50.
 Defaulting to unpruned grid for atomic number  50.
 Defaulting to unpruned grid for atomic number  50.
 Defaulting to unpruned grid for atomic number  50.
 Defaulting to unpruned grid for atomic number  50.
 Defaulting to unpruned grid for atomic number  50.
 Defaulting to unpruned grid for atomic number  50.
 Defaulting to unpruned grid for atomic number  50.
 Defaulting to unpruned grid for atomic number  50.
 Defaulting to unpruned grid for atomic number  50.
 Defaulting to unpruned grid for atomic number  50.
 Defaulting to unpruned grid for atomic number  50.
 Defaulting to unpruned grid for atomic number  50.
 Defaulting to unpruned grid for atomic number  50.
 Defaulting to unpruned grid for atomic number  50.
 Defaulting to unpruned grid for atomic number  50.
 Defaulting to unpruned grid for atomic number  50.
 Defaulting to unpruned grid for atomic number  50.
 Defaulting to unpruned grid for atomic number  50.
 Defaulting to unpruned grid for atomic number  50.
 FoFCou: FMM=F IPFlag=           0 FMFlag=      100000 FMFlg1=           0
         NFxFlg=           0 DoJE=T BraDBF=F KetDBF=T FulRan=T
         Omega=  0.000000  0.000000  1.000000  0.000000  0.000000 ICntrl=     500 IOpCl=  0
         NMat0=    1 NMatS0=    1 NMatT0=    0 NMatD0=    1 NMtDS0=    0 NMtDT0=    0
         I1Cent=           4 NGrid=           0.
 Petite list used in FoFCou.
 Requested convergence on RMS density matrix=1.00D-08 within 128 cycles.
 Requested convergence on MAX density matrix=1.00D-06.
 Requested convergence on             energy=1.00D-06.
 No special actions if energy rises.
 Keep R1 ints in memory in canonical form, NReq=2397586.
 SCF Done:  E(RHF) =  -196.783856527     A.U. after   13 cycles
             Convg  =    0.6175D-08             -V/T =  2.0726
 ExpMin= 6.30D-02 ExpMax= 1.00D+04 ExpMxC= 3.50D+02 IAcc=3 IRadAn=         5 AccDes= 0.00D+00
 HarFok:  IExCor=  205 AccDes= 0.00D+00 IRadAn=         5 IDoV=-2
 ScaDFX=  1.000000  1.000000  1.000000  1.000000
 Defaulting to unpruned grid for atomic number  50.
 Defaulting to unpruned grid for atomic number  50.
 Defaulting to unpruned grid for atomic number  50.
 Defaulting to unpruned grid for atomic number  50.
 Defaulting to unpruned grid for atomic number  50.
 Defaulting to unpruned grid for atomic number  50.
 Defaulting to unpruned grid for atomic number  50.
 Defaulting to unpruned grid for atomic number  50.
 Defaulting to unpruned grid for atomic number  50.
 Defaulting to unpruned grid for atomic number  50.
 Defaulting to unpruned grid for atomic number  50.
 Defaulting to unpruned grid for atomic number  50.
 Defaulting to unpruned grid for atomic number  50.
 Defaulting to unpruned grid for atomic number  50.
 Defaulting to unpruned grid for atomic number  50.
 Defaulting to unpruned grid for atomic number  50.
 Defaulting to unpruned grid for atomic number  50.
 Defaulting to unpruned grid for atomic number  50.
 Defaulting to unpruned grid for atomic number  50.
 Defaulting to unpruned grid for atomic number  50.
 Range of M.O.s used for correlation:     4    59
 NBasis=    59 NAE=    20 NBE=    20 NFC=     3 NFV=     0
 NROrb=     56 NOA=    17 NOB=    17 NVA=    39 NVB=    39
 Fully direct method using O(ONN) memory.
 JobTyp=1 Pass  1:  I=   4 to  20 NPSUse= 20 ParTrn=T ParDer=T DoDerP=T.
 Spin components of T(2) and E(2):
     alpha-alpha T2 =       0.2178556503D-01 E2=     -0.4663343064D-01
     alpha-beta  T2 =       0.1666025101D+00 E2=     -0.3202359569D+00
     beta-beta   T2 =       0.2178556503D-01 E2=     -0.4663343064D-01
 ANorm=    0.1100078925D+01
 E2 =    -0.4135028182D+00 EUMP2 =    -0.19719735934502D+03
          IDoAtm=1111111111
          Differentiating once with respect to electric field.
                with respect to dipole field.
          Differentiating once with respect to nuclear coordinates.
          Keep R1 ints in memory in canonical form, NReq=2368185.
          There are     1 degrees of freedom in the 1st order CPHF.  IDoFFX=0.
 LinEq1:  Iter=  0 NonCon=     1 RMS=9.68D-03 Max=9.64D-02
 AX will form     1 AO Fock derivatives at one time.
 LinEq1:  Iter=  1 NonCon=     1 RMS=3.96D-03 Max=3.32D-02
 LinEq1:  Iter=  2 NonCon=     1 RMS=1.25D-03 Max=1.53D-02
 LinEq1:  Iter=  3 NonCon=     1 RMS=2.62D-04 Max=2.12D-03
 LinEq1:  Iter=  4 NonCon=     1 RMS=9.14D-05 Max=8.81D-04
 LinEq1:  Iter=  5 NonCon=     1 RMS=2.91D-05 Max=2.29D-04
 LinEq1:  Iter=  6 NonCon=     1 RMS=9.50D-06 Max=1.04D-04
 LinEq1:  Iter=  7 NonCon=     1 RMS=3.77D-06 Max=4.00D-05
 LinEq1:  Iter=  8 NonCon=     1 RMS=1.03D-06 Max=1.05D-05
 LinEq1:  Iter=  9 NonCon=     1 RMS=3.12D-07 Max=5.29D-06
 LinEq1:  Iter= 10 NonCon=     1 RMS=7.19D-08 Max=7.53D-07
 LinEq1:  Iter= 11 NonCon=     1 RMS=1.68D-08 Max=1.10D-07
 LinEq1:  Iter= 12 NonCon=     1 RMS=2.67D-09 Max=1.28D-08
 LinEq1:  Iter= 13 NonCon=     1 RMS=4.75D-10 Max=3.45D-09
 LinEq1:  Iter= 14 NonCon=     0 RMS=6.69D-11 Max=5.03D-10
 Linear equations converged to 1.000D-10 1.000D-09 after    14 iterations.
 End of Minotr Frequency-dependent properties file   721 does not exist.
 End of Minotr Frequency-dependent properties file   722 does not exist.
   1 Symmetry operations used in ECPInt.
 ECPInt:  NShTT=     630 NPrTT=    3262 LenC2=     625 LenP2D=    2696.
 LDataN:  DoStor=T MaxTD1= 5 Len=  102
 Calling FoFJK, ICntrl=      2127 FMM=F ISym2X=0 I1Cent= 0 IOpClX= 0 NMat=1 NMatS=1 NMatT=0.
 ***** Axes restored to original set *****
 -------------------------------------------------------------------
 Center     Atomic                   Forces (Hartrees/Bohr)
 Number     Number              X              Y              Z
 -------------------------------------------------------------------
      1        6           0.004167951   -0.001298423    0.000717826
      2        6          -0.008471418    0.005524018   -0.002219249
      3        1           0.000180854   -0.000386678    0.000655115
      4        1           0.000143411    0.000871686   -0.000228608
      5        1           0.000322641    0.000968868   -0.000117259
      6       50           0.000662237   -0.000798499   -0.002097786
      7       50          -0.000433023   -0.000430850    0.001223578
      8        9           0.006148225   -0.003008603    0.001482931
      9       35          -0.001781298   -0.001046341    0.000325858
     10        1          -0.000939580   -0.000395178    0.000257594
 -------------------------------------------------------------------
 Cartesian Forces:  Max     0.008471418 RMS     0.002524258

 GradGradGradGradGradGradGradGradGradGradGradGradGradGradGradGradGradGrad
 Berny optimization.
 Using GEDIIS/GDIIS optimizer.
 Internal  Forces:  Max     0.006721004 RMS     0.001646841
 Search for a local minimum.
 Step number   2 out of a maximum of   43
 All quantities printed in internal units (Hartrees-Bohrs-Radians)
 Mixed Optimization -- RFO/linear search
 Update second derivatives using D2CorX and points    1    2
 DE= -4.68D-03 DEPred=-4.83D-03 R= 9.70D-01
 SS=  1.41D+00  RLast= 1.85D-01 DXNew= 5.0454D-01 5.5622D-01
 Trust test= 9.70D-01 RLast= 1.85D-01 DXMaxT set to 5.05D-01
 Use linear search instead of GDIIS.
     Eigenvalues ---    0.00230   0.00230   0.01725   0.03067   0.03068
     Eigenvalues ---    0.03799   0.04620   0.06622   0.11470   0.12064
     Eigenvalues ---    0.12132   0.12214   0.12418   0.15714   0.16000
     Eigenvalues ---    0.16000   0.17087   0.22034   0.23645   0.24938
     Eigenvalues ---    0.25457   0.37409   0.42171   0.645121000.00000
     Eigenvalues --- 1000.000001000.000001000.000001000.000001000.00000
     Eigenvalues --- 1000.000001000.000001000.00000
 RFO step:  Lambda=-3.95345858D-04 EMin= 2.29934329D-03
 Quartic linear search produced a step of  0.03782.
 Iteration  1 RMS(Cart)=  0.04065081 RMS(Int)=  0.00051162
 Iteration  2 RMS(Cart)=  0.00080183 RMS(Int)=  0.00003727
 Iteration  3 RMS(Cart)=  0.00000019 RMS(Int)=  0.00003727
 Variable       Old X    -DE/DX   Delta X   Delta X   Delta X     New X
                                 (Linear)    (Quad)   (Total)
    R1        2.58381  -0.00253   0.00295  -0.00425  -0.00130   2.58251
    R2        3.72721  -0.00205   0.00240  -0.01264  -0.01024   3.71697
    R3        2.06088   0.00030   0.00161   0.00092   0.00253   2.06341
    R4        4.11673  -0.00097   0.00110  -0.00818  -0.00708   4.10965
    R5        2.71304   0.00672   0.00279   0.01519   0.01799   2.73102
    R6        3.29335  -0.00067   0.00119  -0.00557  -0.00438   3.28896
    R7        3.28818  -0.00048   0.00111  -0.00394  -0.00283   3.28535
    R8        3.28064  -0.00056   0.00112  -0.00453  -0.00341   3.27723
    R9        5.22757  -0.00164  -0.00360  -0.02594  -0.02955   5.19803
    A1        2.19090  -0.00034   0.00049  -0.00156  -0.00108   2.18982
    A2        2.11383  -0.00086  -0.00060  -0.00590  -0.00651   2.10733
    A3        1.97841   0.00120   0.00011   0.00748   0.00759   1.98600
    A4        2.21652   0.00167  -0.00059   0.00686   0.00627   2.22279
    A5        2.08417  -0.00351   0.00054  -0.01452  -0.01397   2.07019
    A6        1.98201   0.00184   0.00005   0.00763   0.00768   1.98969
    A7        1.72701  -0.00009   0.00097   0.00777   0.00861   1.73562
    A8        1.93788   0.00110   0.00020   0.00762   0.00774   1.94562
    A9        1.99072   0.00031   0.00009   0.01001   0.00998   2.00070
   A10        1.79157   0.00158   0.00072   0.01321   0.01393   1.80551
   A11        1.95125  -0.00099  -0.00030  -0.00483  -0.00513   1.94612
   A12        1.99643  -0.00144  -0.00054  -0.00786  -0.00840   1.98803
    D1        3.10544   0.00008   0.00033   0.00194   0.00227   3.10771
    D2       -0.00044   0.00005   0.00010   0.00281   0.00291   0.00247
    D3       -0.04681   0.00012   0.00020   0.00316   0.00337  -0.04344
    D4        3.13051   0.00009  -0.00003   0.00404   0.00400   3.13451
    D5        0.13664  -0.00023  -0.00016   0.03621   0.03603   0.17266
    D6        2.23419   0.00052   0.00053   0.05494   0.05550   2.28970
    D7       -3.03890  -0.00030   0.00007   0.03499   0.03503  -3.00387
    D8       -0.94135   0.00046   0.00076   0.05372   0.05451  -0.88683
    D9        3.11922  -0.00017  -0.00051   0.00087   0.00032   3.11953
   D10        1.09252  -0.00054  -0.00086  -0.00748  -0.00838   1.08415
   D11       -1.23109   0.00058   0.00086   0.02105   0.02194  -1.20915
   D12        3.02540   0.00021   0.00051   0.01270   0.01325   3.03865
         Item               Value     Threshold  Converged?
 Maximum Force            0.006721     0.000450     NO 
 RMS     Force            0.001647     0.000300     NO 
 Maximum Displacement     0.127347     0.001800     NO 
 RMS     Displacement     0.040576     0.001200     NO 
 Predicted change in Energy=-2.009969D-04
 GradGradGradGradGradGradGradGradGradGradGradGradGradGradGradGradGradGrad

                          Input orientation:                          
 ---------------------------------------------------------------------
 Center     Atomic      Atomic             Coordinates (Angstroms)
 Number     Number       Type             X           Y           Z
 ---------------------------------------------------------------------
      1          6           0        2.261282    2.924056   -0.203711
      2          6           0        1.887933    1.691499    0.253481
      3          1           0       -1.023307    2.227926   -0.233956
      4          1           0       -2.076598   -2.143550   -0.328997
      5          1           0        0.544555   -2.762425    0.094037
      6         50           0       -0.135388    0.949061    0.544024
      7         50           0       -0.469713   -1.533967   -0.591325
      8          9           0        2.918805    0.754864    0.638979
      9         35           0        4.113589    3.557516   -0.394831
     10          1           0        1.511539    3.656188   -0.510531
 ---------------------------------------------------------------------
                    Distance matrix (angstroms):
                    1          2          3          4          5
     1  C    0.000000
     2  C    1.366605   0.000000
     3  H    3.357684   3.000111   0.000000
     4  H    6.671846   5.546565   4.497583   0.000000
     5  H    5.947426   4.654839   5.241123   2.726245   0.000000
     6  Sn   3.194329   2.174731   1.740445   3.754292   3.799992
     7  Sn   5.242380   4.083604   3.819164   1.738530   1.734235
     8  F    2.418234   1.445196   4.297927   5.855923   4.278475
     9  Br   1.966936   2.975882   5.308615   8.415753   7.274520
    10  H    1.091911   2.141352   2.922649   6.822364   6.519138
                    6          7          8          9         10
     6  Sn   0.000000
     7  Sn   2.750676   0.000000
     8  F    3.061833   4.270182   0.000000
     9  Br   5.073390   6.853354   3.217317   0.000000
    10  H    3.339609   5.556042   3.423368   2.606489   0.000000
 Stoichiometry    C2H4BrFSn2
 Framework group  C1[X(C2H4BrFSn2)]
 Deg. of freedom    24
 Full point group                 C1      NOp   1
 Largest Abelian subgroup         C1      NOp   1
 Largest concise Abelian subgroup C1      NOp   1
                         Standard orientation:                         
 ---------------------------------------------------------------------
 Center     Atomic      Atomic             Coordinates (Angstroms)
 Number     Number       Type             X           Y           Z
 ---------------------------------------------------------------------
      1          6           0        2.372495    0.446133   -0.400553
      2          6           0        1.232414    0.128399    0.282726
      3          1           0       -0.413718    2.121202   -1.240314
      4          1           0       -4.286330    0.051581   -0.266765
      5          1           0       -2.901958   -1.833885    1.133571
      6         50           0       -0.705893    1.104370    0.141654
      7         50           0       -2.732962   -0.725294   -0.189319
      8          9           0        1.281410   -0.944359    1.249877
      9         35           0        4.114555   -0.442478   -0.189753
     10          1           0        2.373153    1.246040   -1.143802
 ---------------------------------------------------------------------
 Rotational constants (GHZ):      1.7044713      0.2046107      0.1889129
 Standard basis: LANL2DZ (5D, 7F)
 There are    59 symmetry adapted basis functions of A   symmetry.
 Integral buffers will be    131072 words long.
 Raffenetti 1 integral format.
 Two-electron integral symmetry is turned on.
    59 basis functions,   127 primitive gaussians,    59 cartesian basis functions
    20 alpha electrons       20 beta electrons
       nuclear repulsion energy       132.1012931811 Hartrees.
 NAtoms=   10 NActive=   10 NUniq=   10 SFac= 7.50D-01 NAtFMM=   80 NAOKFM=F Big=F
 One-electron integrals computed using PRISM.
   1 Symmetry operations used in ECPInt.
 ECPInt:  NShTT=     630 NPrTT=    3262 LenC2=     625 LenP2D=    2697.
 LDataN:  DoStor=T MaxTD1= 4 Len=   56
 NBasis=    59 RedAO= T  NBF=    59
 NBsUse=    59 1.00D-06 NBFU=    59
 Initial guess read from the read-write file.
 B after Tr=     0.000000    0.000000    0.000000
         Rot=    1.000000    0.000000    0.000000    0.000000 Ang=   0.00 deg.
 Initial guess orbital symmetries:
       Occupied  (A) (A) (A) (A) (A) (A) (A) (A) (A) (A) (A) (A)
                 (A) (A) (A) (A) (A) (A) (A) (A)
       Virtual   (A) (A) (A) (A) (A) (A) (A) (A) (A) (A) (A) (A)
                 (A) (A) (A) (A) (A) (A) (A) (A) (A) (A) (A) (A)
                 (A) (A) (A) (A) (A) (A) (A) (A) (A) (A) (A) (A)
                 (A) (A) (A)
 Harris functional with IExCor=  205 diagonalized for initial guess.
 ExpMin= 6.30D-02 ExpMax= 1.00D+04 ExpMxC= 3.50D+02 IAcc=2 IRadAn=         0 AccDes= 0.00D+00
 HarFok:  IExCor=  205 AccDes= 0.00D+00 IRadAn=         0 IDoV= 1
 ScaDFX=  1.000000  1.000000  1.000000  1.000000
 Defaulting to unpruned grid for atomic number  50.
 Defaulting to unpruned grid for atomic number  50.
 Defaulting to unpruned grid for atomic number  50.
 Defaulting to unpruned grid for atomic number  50.
 Defaulting to unpruned grid for atomic number  50.
 Defaulting to unpruned grid for atomic number  50.
 Defaulting to unpruned grid for atomic number  50.
 Defaulting to unpruned grid for atomic number  50.
 Defaulting to unpruned grid for atomic number  50.
 Defaulting to unpruned grid for atomic number  50.
 Defaulting to unpruned grid for atomic number  50.
 Defaulting to unpruned grid for atomic number  50.
 Defaulting to unpruned grid for atomic number  50.
 Defaulting to unpruned grid for atomic number  50.
 Defaulting to unpruned grid for atomic number  50.
 Defaulting to unpruned grid for atomic number  50.
 Defaulting to unpruned grid for atomic number  50.
 Defaulting to unpruned grid for atomic number  50.
 Defaulting to unpruned grid for atomic number  50.
 Defaulting to unpruned grid for atomic number  50.
 FoFCou: FMM=F IPFlag=           0 FMFlag=      100000 FMFlg1=           0
         NFxFlg=           0 DoJE=T BraDBF=F KetDBF=T FulRan=T
         Omega=  0.000000  0.000000  1.000000  0.000000  0.000000 ICntrl=     500 IOpCl=  0
         NMat0=    1 NMatS0=    1 NMatT0=    0 NMatD0=    1 NMtDS0=    0 NMtDT0=    0
         I1Cent=           4 NGrid=           0.
 Petite list used in FoFCou.
 Requested convergence on RMS density matrix=1.00D-08 within 128 cycles.
 Requested convergence on MAX density matrix=1.00D-06.
 Requested convergence on             energy=1.00D-06.
 No special actions if energy rises.
 Keep R1 ints in memory in canonical form, NReq=2397586.
 SCF Done:  E(RHF) =  -196.783436051     A.U. after   13 cycles
             Convg  =    0.3496D-08             -V/T =  2.0726
 ExpMin= 6.30D-02 ExpMax= 1.00D+04 ExpMxC= 3.50D+02 IAcc=3 IRadAn=         5 AccDes= 0.00D+00
 HarFok:  IExCor=  205 AccDes= 0.00D+00 IRadAn=         5 IDoV=-2
 ScaDFX=  1.000000  1.000000  1.000000  1.000000
 Defaulting to unpruned grid for atomic number  50.
 Defaulting to unpruned grid for atomic number  50.
 Defaulting to unpruned grid for atomic number  50.
 Defaulting to unpruned grid for atomic number  50.
 Defaulting to unpruned grid for atomic number  50.
 Defaulting to unpruned grid for atomic number  50.
 Defaulting to unpruned grid for atomic number  50.
 Defaulting to unpruned grid for atomic number  50.
 Defaulting to unpruned grid for atomic number  50.
 Defaulting to unpruned grid for atomic number  50.
 Defaulting to unpruned grid for atomic number  50.
 Defaulting to unpruned grid for atomic number  50.
 Defaulting to unpruned grid for atomic number  50.
 Defaulting to unpruned grid for atomic number  50.
 Defaulting to unpruned grid for atomic number  50.
 Defaulting to unpruned grid for atomic number  50.
 Defaulting to unpruned grid for atomic number  50.
 Defaulting to unpruned grid for atomic number  50.
 Defaulting to unpruned grid for atomic number  50.
 Defaulting to unpruned grid for atomic number  50.
 Range of M.O.s used for correlation:     4    59
 NBasis=    59 NAE=    20 NBE=    20 NFC=     3 NFV=     0
 NROrb=     56 NOA=    17 NOB=    17 NVA=    39 NVB=    39
 Fully direct method using O(ONN) memory.
 JobTyp=1 Pass  1:  I=   4 to  20 NPSUse= 20 ParTrn=T ParDer=T DoDerP=T.
 Spin components of T(2) and E(2):
     alpha-alpha T2 =       0.2183999055D-01 E2=     -0.4672612384D-01
     alpha-beta  T2 =       0.1670496610D+00 E2=     -0.3207410591D+00
     beta-beta   T2 =       0.2183999055D-01 E2=     -0.4672612384D-01
 ANorm=    0.1100331606D+01
 E2 =    -0.4141933068D+00 EUMP2 =    -0.19719762935726D+03
          IDoAtm=1111111111
          Differentiating once with respect to electric field.
                with respect to dipole field.
          Differentiating once with respect to nuclear coordinates.
          Keep R1 ints in memory in canonical form, NReq=2368185.
          There are     1 degrees of freedom in the 1st order CPHF.  IDoFFX=0.
 LinEq1:  Iter=  0 NonCon=     1 RMS=9.66D-03 Max=9.51D-02
 AX will form     1 AO Fock derivatives at one time.
 LinEq1:  Iter=  1 NonCon=     1 RMS=3.96D-03 Max=3.33D-02
 LinEq1:  Iter=  2 NonCon=     1 RMS=1.26D-03 Max=1.54D-02
 LinEq1:  Iter=  3 NonCon=     1 RMS=2.59D-04 Max=2.16D-03
 LinEq1:  Iter=  4 NonCon=     1 RMS=8.69D-05 Max=8.37D-04
 LinEq1:  Iter=  5 NonCon=     1 RMS=2.71D-05 Max=2.15D-04
 LinEq1:  Iter=  6 NonCon=     1 RMS=8.87D-06 Max=9.55D-05
 LinEq1:  Iter=  7 NonCon=     1 RMS=3.54D-06 Max=3.19D-05
 LinEq1:  Iter=  8 NonCon=     1 RMS=9.92D-07 Max=9.54D-06
 LinEq1:  Iter=  9 NonCon=     1 RMS=3.14D-07 Max=5.47D-06
 LinEq1:  Iter= 10 NonCon=     1 RMS=7.21D-08 Max=7.49D-07
 LinEq1:  Iter= 11 NonCon=     1 RMS=1.70D-08 Max=1.17D-07
 LinEq1:  Iter= 12 NonCon=     1 RMS=2.75D-09 Max=1.39D-08
 LinEq1:  Iter= 13 NonCon=     1 RMS=4.86D-10 Max=3.47D-09
 LinEq1:  Iter= 14 NonCon=     0 RMS=6.78D-11 Max=4.91D-10
 Linear equations converged to 1.000D-10 1.000D-09 after    14 iterations.
 End of Minotr Frequency-dependent properties file   721 does not exist.
 End of Minotr Frequency-dependent properties file   722 does not exist.
   1 Symmetry operations used in ECPInt.
 ECPInt:  NShTT=     630 NPrTT=    3262 LenC2=     625 LenP2D=    2697.
 LDataN:  DoStor=T MaxTD1= 5 Len=  102
 Calling FoFJK, ICntrl=      2127 FMM=F ISym2X=0 I1Cent= 0 IOpClX= 0 NMat=1 NMatS=1 NMatT=0.
 ***** Axes restored to original set *****
 -------------------------------------------------------------------
 Center     Atomic                   Forces (Hartrees/Bohr)
 Number     Number              X              Y              Z
 -------------------------------------------------------------------
      1        6           0.001660402   -0.000451331    0.000219694
      2        6          -0.003465494    0.002674838   -0.000722647
      3        1           0.000311835   -0.000027534    0.000513526
      4        1           0.000159590    0.000539176   -0.000069255
      5        1           0.000137613    0.000608226   -0.000079826
      6       50           0.000652218   -0.000342417   -0.000911269
      7       50          -0.000363993   -0.001069761    0.000357115
      8        9           0.001719216   -0.001115862    0.000437371
      9       35          -0.000888350   -0.000294606    0.000125061
     10        1           0.000076963   -0.000520730    0.000130229
 -------------------------------------------------------------------
 Cartesian Forces:  Max     0.003465494 RMS     0.001034870

 GradGradGradGradGradGradGradGradGradGradGradGradGradGradGradGradGradGrad
 Berny optimization.
 Using GEDIIS/GDIIS optimizer.
 Internal  Forces:  Max     0.002066192 RMS     0.000677791
 Search for a local minimum.
 Step number   3 out of a maximum of   43
 All quantities printed in internal units (Hartrees-Bohrs-Radians)
 Mixed Optimization -- En-DIIS/RFO-DIIS
 Update second derivatives using D2CorX and points    1    2    3
 DE= -2.70D-04 DEPred=-2.01D-04 R= 1.34D+00
 SS=  1.41D+00  RLast= 1.08D-01 DXNew= 8.4853D-01 3.2400D-01
 Trust test= 1.34D+00 RLast= 1.08D-01 DXMaxT set to 5.05D-01
 Use linear search instead of GDIIS.
     Eigenvalues ---    0.00229   0.00245   0.01709   0.03047   0.03068
     Eigenvalues ---    0.03092   0.04657   0.06528   0.11385   0.11841
     Eigenvalues ---    0.12117   0.12169   0.12279   0.13897   0.16000
     Eigenvalues ---    0.16073   0.16797   0.21991   0.22671   0.24293
     Eigenvalues ---    0.26188   0.37917   0.40720   0.638881000.00000
     Eigenvalues --- 1000.000001000.000001000.000001000.000001000.00000
     Eigenvalues --- 1000.000001000.000001000.00000
 RFO step:  Lambda=-6.98852042D-05 EMin= 2.29087006D-03
 Quartic linear search produced a step of  0.52166.
 Iteration  1 RMS(Cart)=  0.01877036 RMS(Int)=  0.00022317
 Iteration  2 RMS(Cart)=  0.00027736 RMS(Int)=  0.00007116
 Iteration  3 RMS(Cart)=  0.00000003 RMS(Int)=  0.00007116
 Variable       Old X    -DE/DX   Delta X   Delta X   Delta X     New X
                                 (Linear)    (Quad)   (Total)
    R1        2.58251  -0.00107  -0.00068  -0.00007  -0.00075   2.58176
    R2        3.71697  -0.00094  -0.00534  -0.00317  -0.00851   3.70846
    R3        2.06341  -0.00044   0.00132  -0.00145  -0.00013   2.06328
    R4        4.10965  -0.00076  -0.00370  -0.00613  -0.00983   4.09982
    R5        2.73102   0.00207   0.00938   0.00252   0.01190   2.74293
    R6        3.28896  -0.00041  -0.00229  -0.00258  -0.00487   3.28409
    R7        3.28535  -0.00035  -0.00148  -0.00241  -0.00389   3.28146
    R8        3.27723  -0.00038  -0.00178  -0.00258  -0.00436   3.27287
    R9        5.19803  -0.00015  -0.01541   0.00380  -0.01162   5.18641
    A1        2.18982   0.00021  -0.00056   0.00215   0.00159   2.19142
    A2        2.10733  -0.00042  -0.00339  -0.00193  -0.00532   2.10200
    A3        1.98600   0.00022   0.00396  -0.00023   0.00373   1.98973
    A4        2.22279   0.00130   0.00327   0.00522   0.00849   2.23129
    A5        2.07019  -0.00113  -0.00729  -0.00151  -0.00880   2.06139
    A6        1.98969  -0.00018   0.00401  -0.00368   0.00032   1.99002
    A7        1.73562  -0.00051   0.00449   0.00021   0.00444   1.74005
    A8        1.94562   0.00101   0.00404   0.00645   0.01034   1.95596
    A9        2.00070   0.00050   0.00521   0.01063   0.01565   2.01635
   A10        1.80551   0.00092   0.00727   0.00519   0.01244   1.81795
   A11        1.94612  -0.00074  -0.00268  -0.00493  -0.00762   1.93850
   A12        1.98803  -0.00088  -0.00438  -0.00532  -0.00971   1.97831
    D1        3.10771  -0.00004   0.00119  -0.00273  -0.00154   3.10617
    D2        0.00247  -0.00006   0.00152  -0.00363  -0.00211   0.00036
    D3       -0.04344  -0.00005   0.00176  -0.00369  -0.00193  -0.04537
    D4        3.13451  -0.00007   0.00209  -0.00459  -0.00250   3.13201
    D5        0.17266  -0.00038   0.01879  -0.03542  -0.01666   0.15600
    D6        2.28970   0.00035   0.02895  -0.02019   0.00879   2.29849
    D7       -3.00387  -0.00039   0.01828  -0.03453  -0.01628  -3.02015
    D8       -0.88683   0.00035   0.02844  -0.01929   0.00917  -0.87766
    D9        3.11953  -0.00015   0.00017  -0.02392  -0.02384   3.09570
   D10        1.08415  -0.00022  -0.00437  -0.02362  -0.02808   1.05606
   D11       -1.20915   0.00018   0.01145  -0.01296  -0.00142  -1.21057
   D12        3.03865   0.00010   0.00691  -0.01266  -0.00567   3.03298
         Item               Value     Threshold  Converged?
 Maximum Force            0.002066     0.000450     NO 
 RMS     Force            0.000678     0.000300     NO 
 Maximum Displacement     0.057158     0.001800     NO 
 RMS     Displacement     0.018757     0.001200     NO 
 Predicted change in Energy=-7.150855D-05
 GradGradGradGradGradGradGradGradGradGradGradGradGradGradGradGradGradGrad

                          Input orientation:                          
 ---------------------------------------------------------------------
 Center     Atomic      Atomic             Coordinates (Angstroms)
 Number     Number       Type             X           Y           Z
 ---------------------------------------------------------------------
      1          6           0        2.264467    2.923521   -0.203140
      2          6           0        1.880414    1.691736    0.246008
      3          1           0       -1.031098    2.231852   -0.232173
      4          1           0       -2.078464   -2.143939   -0.298750
      5          1           0        0.563229   -2.745669    0.083087
      6         50           0       -0.137920    0.944535    0.519645
      7         50           0       -0.477891   -1.539765   -0.596202
      8          9           0        2.916077    0.752638    0.636306
      9         35           0        4.116452    3.550106   -0.372531
     10          1           0        1.517429    3.656152   -0.515080
 ---------------------------------------------------------------------
                    Distance matrix (angstroms):
                    1          2          3          4          5
     1  C    0.000000
     2  C    1.366209   0.000000
     3  H    3.367492   2.999548   0.000000
     4  H    6.674530   5.539123   4.499884   0.000000
     5  H    5.925863   4.631639   5.236123   2.736133   0.000000
     6  Sn   3.195351   2.169530   1.737867   3.738202   3.781508
     7  Sn   5.253185   4.088217   3.829315   1.736473   1.731927
     8  F    2.417022   1.451493   4.303779   5.848926   4.252070
     9  Br   1.962435   2.972541   5.315521   8.414546   7.243602
    10  H    1.091843   2.137743   2.933199   6.827760   6.500124
                    6          7          8          9         10
     6  Sn   0.000000
     7  Sn   2.744530   0.000000
     8  F    3.062243   4.277056   0.000000
     9  Br   5.068004   6.860379   3.206942   0.000000
    10  H    3.341213   5.566457   3.422323   2.605089   0.000000
 Stoichiometry    C2H4BrFSn2
 Framework group  C1[X(C2H4BrFSn2)]
 Deg. of freedom    24
 Full point group                 C1      NOp   1
 Largest Abelian subgroup         C1      NOp   1
 Largest concise Abelian subgroup C1      NOp   1
                         Standard orientation:                         
 ---------------------------------------------------------------------
 Center     Atomic      Atomic             Coordinates (Angstroms)
 Number     Number       Type             X           Y           Z
 ---------------------------------------------------------------------
      1          6           0        2.378615    0.451157   -0.398675
      2          6           0        1.234204    0.127533    0.273722
      3          1           0       -0.413959    2.152684   -1.202628
      4          1           0       -4.282943    0.077181   -0.216620
      5          1           0       -2.868371   -1.852447    1.110763
      6         50           0       -0.703880    1.093993    0.144704
      7         50           0       -2.738849   -0.716814   -0.190441
      8          9           0        1.287988   -0.963284    1.229786
      9         35           0        4.115825   -0.437092   -0.188290
     10          1           0        2.378995    1.259263   -1.132900
 ---------------------------------------------------------------------
 Rotational constants (GHZ):      1.7315458      0.2043050      0.1888226
 Standard basis: LANL2DZ (5D, 7F)
 There are    59 symmetry adapted basis functions of A   symmetry.
 Integral buffers will be    131072 words long.
 Raffenetti 1 integral format.
 Two-electron integral symmetry is turned on.
    59 basis functions,   127 primitive gaussians,    59 cartesian basis functions
    20 alpha electrons       20 beta electrons
       nuclear repulsion energy       132.1186874831 Hartrees.
 NAtoms=   10 NActive=   10 NUniq=   10 SFac= 7.50D-01 NAtFMM=   80 NAOKFM=F Big=F
 One-electron integrals computed using PRISM.
   1 Symmetry operations used in ECPInt.
 ECPInt:  NShTT=     630 NPrTT=    3262 LenC2=     625 LenP2D=    2695.
 LDataN:  DoStor=T MaxTD1= 4 Len=   56
 NBasis=    59 RedAO= T  NBF=    59
 NBsUse=    59 1.00D-06 NBFU=    59
 Initial guess read from the read-write file.
 B after Tr=     0.000000    0.000000    0.000000
         Rot=    1.000000    0.000000    0.000000    0.000000 Ang=   0.00 deg.
 Initial guess orbital symmetries:
       Occupied  (A) (A) (A) (A) (A) (A) (A) (A) (A) (A) (A) (A)
                 (A) (A) (A) (A) (A) (A) (A) (A)
       Virtual   (A) (A) (A) (A) (A) (A) (A) (A) (A) (A) (A) (A)
                 (A) (A) (A) (A) (A) (A) (A) (A) (A) (A) (A) (A)
                 (A) (A) (A) (A) (A) (A) (A) (A) (A) (A) (A) (A)
                 (A) (A) (A)
 Harris functional with IExCor=  205 diagonalized for initial guess.
 ExpMin= 6.30D-02 ExpMax= 1.00D+04 ExpMxC= 3.50D+02 IAcc=2 IRadAn=         0 AccDes= 0.00D+00
 HarFok:  IExCor=  205 AccDes= 0.00D+00 IRadAn=         0 IDoV= 1
 ScaDFX=  1.000000  1.000000  1.000000  1.000000
 Defaulting to unpruned grid for atomic number  50.
 Defaulting to unpruned grid for atomic number  50.
 Defaulting to unpruned grid for atomic number  50.
 Defaulting to unpruned grid for atomic number  50.
 Defaulting to unpruned grid for atomic number  50.
 Defaulting to unpruned grid for atomic number  50.
 Defaulting to unpruned grid for atomic number  50.
 Defaulting to unpruned grid for atomic number  50.
 Defaulting to unpruned grid for atomic number  50.
 Defaulting to unpruned grid for atomic number  50.
 Defaulting to unpruned grid for atomic number  50.
 Defaulting to unpruned grid for atomic number  50.
 Defaulting to unpruned grid for atomic number  50.
 Defaulting to unpruned grid for atomic number  50.
 Defaulting to unpruned grid for atomic number  50.
 Defaulting to unpruned grid for atomic number  50.
 Defaulting to unpruned grid for atomic number  50.
 Defaulting to unpruned grid for atomic number  50.
 Defaulting to unpruned grid for atomic number  50.
 Defaulting to unpruned grid for atomic number  50.
 FoFCou: FMM=F IPFlag=           0 FMFlag=      100000 FMFlg1=           0
         NFxFlg=           0 DoJE=T BraDBF=F KetDBF=T FulRan=T
         Omega=  0.000000  0.000000  1.000000  0.000000  0.000000 ICntrl=     500 IOpCl=  0
         NMat0=    1 NMatS0=    1 NMatT0=    0 NMatD0=    1 NMtDS0=    0 NMtDT0=    0
         I1Cent=           4 NGrid=           0.
 Petite list used in FoFCou.
 Requested convergence on RMS density matrix=1.00D-08 within 128 cycles.
 Requested convergence on MAX density matrix=1.00D-06.
 Requested convergence on             energy=1.00D-06.
 No special actions if energy rises.
 Keep R1 ints in memory in canonical form, NReq=2397586.
 SCF Done:  E(RHF) =  -196.783195467     A.U. after   12 cycles
             Convg  =    0.6327D-08             -V/T =  2.0726
 ExpMin= 6.30D-02 ExpMax= 1.00D+04 ExpMxC= 3.50D+02 IAcc=3 IRadAn=         5 AccDes= 0.00D+00
 HarFok:  IExCor=  205 AccDes= 0.00D+00 IRadAn=         5 IDoV=-2
 ScaDFX=  1.000000  1.000000  1.000000  1.000000
 Defaulting to unpruned grid for atomic number  50.
 Defaulting to unpruned grid for atomic number  50.
 Defaulting to unpruned grid for atomic number  50.
 Defaulting to unpruned grid for atomic number  50.
 Defaulting to unpruned grid for atomic number  50.
 Defaulting to unpruned grid for atomic number  50.
 Defaulting to unpruned grid for atomic number  50.
 Defaulting to unpruned grid for atomic number  50.
 Defaulting to unpruned grid for atomic number  50.
 Defaulting to unpruned grid for atomic number  50.
 Defaulting to unpruned grid for atomic number  50.
 Defaulting to unpruned grid for atomic number  50.
 Defaulting to unpruned grid for atomic number  50.
 Defaulting to unpruned grid for atomic number  50.
 Defaulting to unpruned grid for atomic number  50.
 Defaulting to unpruned grid for atomic number  50.
 Defaulting to unpruned grid for atomic number  50.
 Defaulting to unpruned grid for atomic number  50.
 Defaulting to unpruned grid for atomic number  50.
 Defaulting to unpruned grid for atomic number  50.
 Range of M.O.s used for correlation:     4    59
 NBasis=    59 NAE=    20 NBE=    20 NFC=     3 NFV=     0
 NROrb=     56 NOA=    17 NOB=    17 NVA=    39 NVB=    39
 Fully direct method using O(ONN) memory.
 JobTyp=1 Pass  1:  I=   4 to  20 NPSUse= 20 ParTrn=T ParDer=T DoDerP=T.
 Spin components of T(2) and E(2):
     alpha-alpha T2 =       0.2186960390D-01 E2=     -0.4677708330D-01
     alpha-beta  T2 =       0.1672318075D+00 E2=     -0.3209588333D+00
     beta-beta   T2 =       0.2186960390D-01 E2=     -0.4677708330D-01
 ANorm=    0.1100441282D+01
 E2 =    -0.4145129999D+00 EUMP2 =    -0.19719770846664D+03
          IDoAtm=1111111111
          Differentiating once with respect to electric field.
                with respect to dipole field.
          Differentiating once with respect to nuclear coordinates.
          Keep R1 ints in memory in canonical form, NReq=2368185.
          There are     1 degrees of freedom in the 1st order CPHF.  IDoFFX=0.
 LinEq1:  Iter=  0 NonCon=     1 RMS=9.65D-03 Max=9.47D-02
 AX will form     1 AO Fock derivatives at one time.
 LinEq1:  Iter=  1 NonCon=     1 RMS=3.97D-03 Max=3.36D-02
 LinEq1:  Iter=  2 NonCon=     1 RMS=1.26D-03 Max=1.56D-02
 LinEq1:  Iter=  3 NonCon=     1 RMS=2.56D-04 Max=2.21D-03
 LinEq1:  Iter=  4 NonCon=     1 RMS=8.46D-05 Max=8.09D-04
 LinEq1:  Iter=  5 NonCon=     1 RMS=2.56D-05 Max=1.92D-04
 LinEq1:  Iter=  6 NonCon=     1 RMS=8.13D-06 Max=7.93D-05
 LinEq1:  Iter=  7 NonCon=     1 RMS=3.26D-06 Max=2.30D-05
 LinEq1:  Iter=  8 NonCon=     1 RMS=9.25D-07 Max=7.80D-06
 LinEq1:  Iter=  9 NonCon=     1 RMS=2.91D-07 Max=5.15D-06
 LinEq1:  Iter= 10 NonCon=     1 RMS=6.73D-08 Max=7.05D-07
 LinEq1:  Iter= 11 NonCon=     1 RMS=1.67D-08 Max=1.31D-07
 LinEq1:  Iter= 12 NonCon=     1 RMS=2.73D-09 Max=1.53D-08
 LinEq1:  Iter= 13 NonCon=     1 RMS=4.82D-10 Max=3.22D-09
 LinEq1:  Iter= 14 NonCon=     0 RMS=6.81D-11 Max=4.66D-10
 Linear equations converged to 1.000D-10 1.000D-09 after    14 iterations.
 End of Minotr Frequency-dependent properties file   721 does not exist.
 End of Minotr Frequency-dependent properties file   722 does not exist.
   1 Symmetry operations used in ECPInt.
 ECPInt:  NShTT=     630 NPrTT=    3262 LenC2=     625 LenP2D=    2695.
 LDataN:  DoStor=T MaxTD1= 5 Len=  102
 Calling FoFJK, ICntrl=      2127 FMM=F ISym2X=0 I1Cent= 0 IOpClX= 0 NMat=1 NMatS=1 NMatT=0.
 ***** Axes restored to original set *****
 -------------------------------------------------------------------
 Center     Atomic                   Forces (Hartrees/Bohr)
 Number     Number              X              Y              Z
 -------------------------------------------------------------------
      1        6          -0.000040977   -0.000313014    0.000098819
      2        6           0.000335812    0.000806156   -0.000257564
      3        1           0.000159565    0.000182899    0.000168289
      4        1          -0.000029153    0.000146954    0.000012710
      5        1           0.000079930    0.000101195    0.000208865
      6       50           0.000137602   -0.000553147    0.000050831
      7       50          -0.000159666   -0.000498791   -0.000284416
      8        9          -0.000721695    0.000109669   -0.000050374
      9       35           0.000014633    0.000122699   -0.000024402
     10        1           0.000223949   -0.000104620    0.000077243
 -------------------------------------------------------------------
 Cartesian Forces:  Max     0.000806156 RMS     0.000283403

 GradGradGradGradGradGradGradGradGradGradGradGradGradGradGradGradGradGrad
 Berny optimization.
 Using GEDIIS/GDIIS optimizer.
 Internal  Forces:  Max     0.000924850 RMS     0.000338152
 Search for a local minimum.
 Step number   4 out of a maximum of   43
 All quantities printed in internal units (Hartrees-Bohrs-Radians)
 Mixed Optimization -- En-DIIS/RFO-DIIS
 Swaping is turned off.
 Update second derivatives using D2CorX and points    1    2    3    4
 DE= -7.91D-05 DEPred=-7.15D-05 R= 1.11D+00
 SS=  1.41D+00  RLast= 5.91D-02 DXNew= 8.4853D-01 1.7720D-01
 Trust test= 1.11D+00 RLast= 5.91D-02 DXMaxT set to 5.05D-01
     Eigenvalues ---    0.00237   0.00248   0.01701   0.02551   0.03073
     Eigenvalues ---    0.03089   0.04827   0.06568   0.09803   0.12102
     Eigenvalues ---    0.12139   0.12199   0.12417   0.13405   0.16021
     Eigenvalues ---    0.16101   0.16999   0.21680   0.22326   0.24251
     Eigenvalues ---    0.28139   0.37579   0.43375   0.638031000.00000
     Eigenvalues --- 1000.000001000.000001000.000001000.000001000.00000
     Eigenvalues --- 1000.000001000.000001000.00000
 En-DIIS/RFO-DIIS IScMMF=        0 using points:     4    3
 RFO step:  Lambda=-9.66607989D-06.
 DIIS coeffs:      1.12835     -0.12835
 Iteration  1 RMS(Cart)=  0.03246708 RMS(Int)=  0.00047781
 Iteration  2 RMS(Cart)=  0.00054020 RMS(Int)=  0.00002558
 Iteration  3 RMS(Cart)=  0.00000010 RMS(Int)=  0.00002558
 Variable       Old X    -DE/DX   Delta X   Delta X   Delta X     New X
                                  (DIIS)     (GDIIS)  (Total)
    R1        2.58176  -0.00026  -0.00010  -0.00034  -0.00044   2.58132
    R2        3.70846   0.00006  -0.00109  -0.00128  -0.00237   3.70609
    R3        2.06328  -0.00025  -0.00002  -0.00034  -0.00035   2.06293
    R4        4.09982   0.00006  -0.00126  -0.00118  -0.00245   4.09737
    R5        2.74293  -0.00060   0.00153   0.00194   0.00346   2.74639
    R6        3.28409  -0.00002  -0.00063  -0.00101  -0.00164   3.28246
    R7        3.28146  -0.00002  -0.00050  -0.00079  -0.00129   3.28017
    R8        3.27287   0.00006  -0.00056  -0.00017  -0.00073   3.27214
    R9        5.18641   0.00027  -0.00149  -0.00020  -0.00169   5.18472
    A1        2.19142   0.00022   0.00020   0.00128   0.00149   2.19290
    A2        2.10200  -0.00003  -0.00068  -0.00130  -0.00198   2.10002
    A3        1.98973  -0.00019   0.00048   0.00003   0.00051   1.99024
    A4        2.23129   0.00070   0.00109   0.00459   0.00568   2.23696
    A5        2.06139   0.00022  -0.00113  -0.00127  -0.00240   2.05899
    A6        1.99002  -0.00092   0.00004  -0.00338  -0.00334   1.98668
    A7        1.74005  -0.00058   0.00057  -0.00144  -0.00097   1.73909
    A8        1.95596   0.00068   0.00133   0.00560   0.00688   1.96284
    A9        2.01635   0.00036   0.00201   0.00823   0.01019   2.02654
   A10        1.81795   0.00028   0.00160   0.00291   0.00447   1.82242
   A11        1.93850  -0.00029  -0.00098  -0.00447  -0.00546   1.93304
   A12        1.97831  -0.00060  -0.00125  -0.00712  -0.00838   1.96993
    D1        3.10617  -0.00006  -0.00020  -0.00230  -0.00250   3.10367
    D2        0.00036  -0.00001  -0.00027   0.00018  -0.00009   0.00027
    D3       -0.04537   0.00000  -0.00025  -0.00037  -0.00062  -0.04600
    D4        3.13201   0.00005  -0.00032   0.00211   0.00179   3.13379
    D5        0.15600  -0.00015  -0.00214   0.01320   0.01106   0.16707
    D6        2.29849   0.00024   0.00113   0.02461   0.02574   2.32423
    D7       -3.02015  -0.00018  -0.00209   0.01083   0.00874  -3.01140
    D8       -0.87766   0.00021   0.00118   0.02225   0.02342  -0.85424
    D9        3.09570   0.00000  -0.00306   0.03883   0.03575   3.13144
   D10        1.05606   0.00023  -0.00360   0.04281   0.03915   1.09521
   D11       -1.21057  -0.00004  -0.00018   0.04619   0.04606  -1.16451
   D12        3.03298   0.00019  -0.00073   0.05017   0.04947   3.08245
         Item               Value     Threshold  Converged?
 Maximum Force            0.000925     0.000450     NO 
 RMS     Force            0.000338     0.000300     NO 
 Maximum Displacement     0.106188     0.001800     NO 
 RMS     Displacement     0.032380     0.001200     NO 
 Predicted change in Energy=-2.301393D-05
 GradGradGradGradGradGradGradGradGradGradGradGradGradGradGradGradGradGrad

                          Input orientation:                          
 ---------------------------------------------------------------------
 Center     Atomic      Atomic             Coordinates (Angstroms)
 Number     Number       Type             X           Y           Z
 ---------------------------------------------------------------------
      1          6           0        2.265616    2.933771   -0.198061
      2          6           0        1.883871    1.693684    0.228961
      3          1           0       -1.030559    2.222868   -0.225089
      4          1           0       -2.085552   -2.129540   -0.330515
      5          1           0        0.539227   -2.760162    0.139279
      6         50           0       -0.127258    0.932844    0.507754
      7         50           0       -0.468036   -1.557081   -0.593013
      8          9           0        2.925266    0.747893    0.593838
      9         35           0        4.114641    3.565195   -0.367273
     10          1           0        1.515479    3.671696   -0.488709
 ---------------------------------------------------------------------
                    Distance matrix (angstroms):
                    1          2          3          4          5
     1  C    0.000000
     2  C    1.365977   0.000000
     3  H    3.372074   2.996682   0.000000
     4  H    6.677374   5.539528   4.479685   0.000000
     5  H    5.959453   4.653262   5.237135   2.740047   0.000000
     6  Sn   3.198082   2.168235   1.737002   3.730389   3.770711
     7  Sn   5.272247   4.095678   3.839246   1.735791   1.731541
     8  F    2.416672   1.453326   4.300551   5.851695   4.266878
     9  Br   1.961178   2.972268   5.319317   8.418654   7.283564
    10  H    1.091657   2.136187   2.941243   6.829845   6.535765
                    6          7          8          9         10
     6  Sn   0.000000
     7  Sn   2.743636   0.000000
     8  F    3.059333   4.270365   0.000000
     9  Br   5.068397   6.876743   3.205548   0.000000
    10  H    3.345569   5.593328   3.421699   2.604175   0.000000
 Stoichiometry    C2H4BrFSn2
 Framework group  C1[X(C2H4BrFSn2)]
 Deg. of freedom    24
 Full point group                 C1      NOp   1
 Largest Abelian subgroup         C1      NOp   1
 Largest concise Abelian subgroup C1      NOp   1
                         Standard orientation:                         
 ---------------------------------------------------------------------
 Center     Atomic      Atomic             Coordinates (Angstroms)
[...]
 Translational            0.889              2.981             43.551
 Rotational               0.889              2.981             32.831
 Vibrational             31.499             25.796             32.167
 Vibration     1          0.593              1.985              6.076
 Vibration     2          0.594              1.983              5.585
 Vibration     3          0.608              1.934              3.127
 Vibration     4          0.611              1.925              2.975
 Vibration     5          0.619              1.901              2.655
 Vibration     6          0.629              1.866              2.326
 Vibration     7          0.635              1.848              2.190
 Vibration     8          0.656              1.784              1.825
 Vibration     9          0.717              1.602              1.228
 Vibration    10          0.758              1.491              1.000
 Vibration    11          0.826              1.318              0.740
 Vibration    12          0.846              1.272              0.683
 Vibration    13          0.948              1.053              0.467
                       Q            Log10(Q)             Ln(Q)
 Total Bot       0.788949D-01         -1.102951         -2.539638
 Total V=0       0.440264D+19         18.643713         42.928735
 Vib (Bot)       0.873512D-16        -16.058731        -36.976595
 Vib (Bot)    1  0.781469D+01          0.892912          2.056005
 Vib (Bot)    2  0.609926D+01          0.785277          1.808167
 Vib (Bot)    3  0.172766D+01          0.237457          0.546765
 Vib (Bot)    4  0.159268D+01          0.202130          0.465421
 Vib (Bot)    5  0.133928D+01          0.126871          0.292130
 Vib (Bot)    6  0.111407D+01          0.046911          0.108017
 Vib (Bot)    7  0.103051D+01          0.013053          0.030056
 Vib (Bot)    8  0.828558D+00         -0.081677         -0.188068
 Vib (Bot)    9  0.552652D+00         -0.257548         -0.593027
 Vib (Bot)   10  0.460287D+00         -0.336971         -0.775905
 Vib (Bot)   11  0.359701D+00         -0.444059         -1.022483
 Vib (Bot)   12  0.338225D+00         -0.470794         -1.084042
 Vib (Bot)   13  0.255555D+00         -0.592516         -1.364319
 Vib (V=0)       0.487453D+04          3.687933          8.491779
 Vib (V=0)    1  0.833067D+01          0.920680          2.119944
 Vib (V=0)    2  0.661972D+01          0.820839          1.890053
 Vib (V=0)    3  0.229855D+01          0.361454          0.832280
 Vib (V=0)    4  0.216932D+01          0.336324          0.774416
 Vib (V=0)    5  0.192957D+01          0.285460          0.657296
 Vib (V=0)    6  0.172112D+01          0.235812          0.542978
 Vib (V=0)    7  0.164541D+01          0.216273          0.497987
 Vib (V=0)    8  0.146773D+01          0.166647          0.383720
 Vib (V=0)    9  0.124527D+01          0.095263          0.219351
 Vib (V=0)   10  0.117961D+01          0.071737          0.165180
 Vib (V=0)   11  0.111594D+01          0.047642          0.109699
 Vib (V=0)   12  0.110365D+01          0.042832          0.098625
 Vib (V=0)   13  0.106152D+01          0.025929          0.059705
 Electronic      0.100000D+01          0.000000          0.000000
 Translational   0.270440D+09          8.432071         19.415561
 Rotational      0.333971D+07          6.523709         15.021395
 ***** Axes restored to original set *****
 -------------------------------------------------------------------
 Center     Atomic                   Forces (Hartrees/Bohr)
 Number     Number              X              Y              Z
 -------------------------------------------------------------------
      1        6           0.000022250   -0.000015751    0.000012883
      2        6          -0.000026128    0.000036535   -0.000005772
      3        1           0.000000391   -0.000000064   -0.000003019
      4        1           0.000001368   -0.000001848    0.000000547
      5        1          -0.000003388   -0.000003324   -0.000002195
      6       50           0.000005856   -0.000002666    0.000003208
      7       50          -0.000001584    0.000001862    0.000001602
      8        9           0.000013503   -0.000011932   -0.000001264
      9       35          -0.000011164    0.000002648    0.000000041
     10        1          -0.000001104   -0.000005458   -0.000006029
 -------------------------------------------------------------------
 Cartesian Forces:  Max     0.000036535 RMS     0.000010936

 GradGradGradGradGradGradGradGradGradGradGradGradGradGradGradGradGradGrad
 Berny optimization.
 Internal  Forces:  Max     0.000019014 RMS     0.000007717
 Search for a local minimum.
 Step number   1 out of a maximum of    2
 All quantities printed in internal units (Hartrees-Bohrs-Radians)
 Second derivative matrix not updated -- analytic derivatives used.
     Eigenvalues ---    0.00294   0.00633   0.01124   0.01619   0.03288
     Eigenvalues ---    0.03455   0.04027   0.04198   0.05717   0.06710
     Eigenvalues ---    0.07519   0.08576   0.10190   0.11260   0.12678
     Eigenvalues ---    0.12946   0.13035   0.13153   0.14905   0.18901
     Eigenvalues ---    0.20759   0.29975   0.36937   0.555081000.00000
     Eigenvalues --- 1000.000001000.000001000.000001000.000001000.00000
     Eigenvalues --- 1000.000001000.000001000.00000
 Angle between quadratic step and forces=  56.08 degrees.
 Linear search not attempted -- first point.
 Iteration  1 RMS(Cart)=  0.00062316 RMS(Int)=  0.00000011
 Iteration  2 RMS(Cart)=  0.00000012 RMS(Int)=  0.00000001
 Variable       Old X    -DE/DX   Delta X   Delta X   Delta X     New X
                                 (Linear)    (Quad)   (Total)
    R1        2.58093  -0.00002   0.00000  -0.00003  -0.00003   2.58090
    R2        3.70841  -0.00001   0.00000  -0.00009  -0.00009   3.70832
    R3        2.06265   0.00000   0.00000   0.00000   0.00000   2.06265
    R4        4.09884   0.00000   0.00000  -0.00003  -0.00003   4.09882
    R5        2.74206   0.00002   0.00000   0.00009   0.00009   2.74215
    R6        3.28401   0.00000   0.00000   0.00002   0.00002   3.28403
    R7        3.28206   0.00000   0.00000   0.00001   0.00001   3.28207
    R8        3.27378   0.00000   0.00000   0.00000   0.00000   3.27377
    R9        5.18882   0.00000   0.00000   0.00006   0.00006   5.18888
    A1        2.19243   0.00002   0.00000   0.00012   0.00012   2.19255
    A2        2.10202  -0.00001   0.00000  -0.00010  -0.00010   2.10191
    A3        1.98871  -0.00001   0.00000  -0.00002  -0.00002   1.98869
    A4        2.23814   0.00001   0.00000   0.00004   0.00004   2.23819
    A5        2.06242   0.00000   0.00000  -0.00004  -0.00004   2.06239
    A6        1.98206   0.00000   0.00000  -0.00001  -0.00001   1.98205
    A7        1.73623  -0.00001   0.00000  -0.00008  -0.00008   1.73615
    A8        1.97303   0.00002   0.00000   0.00037   0.00037   1.97340
    A9        2.03319  -0.00001   0.00000  -0.00036  -0.00036   2.03283
   A10        1.82035  -0.00001   0.00000  -0.00009  -0.00009   1.82026
   A11        1.92310   0.00000   0.00000  -0.00013  -0.00013   1.92297
   A12        1.96149   0.00001   0.00000   0.00031   0.00031   1.96180
    D1        3.10292   0.00000   0.00000  -0.00016  -0.00016   3.10275
    D2       -0.00003   0.00000   0.00000  -0.00010  -0.00010  -0.00012
    D3       -0.04723  -0.00001   0.00000  -0.00028  -0.00028  -0.04752
    D4        3.13301  -0.00001   0.00000  -0.00022  -0.00022   3.13279
    D5        0.15742   0.00000   0.00000  -0.00001  -0.00001   0.15741
    D6        2.32565   0.00000   0.00000  -0.00030  -0.00030   2.32534
    D7       -3.02135   0.00000   0.00000  -0.00007  -0.00007  -3.02142
    D8       -0.85312   0.00000   0.00000  -0.00037  -0.00037  -0.85349
    D9        3.09162   0.00000   0.00000   0.00028   0.00028   3.09190
   D10        1.06968   0.00000   0.00000   0.00028   0.00028   1.06996
   D11       -1.19611   0.00000   0.00000   0.00020   0.00020  -1.19591
   D12        3.06513   0.00000   0.00000   0.00020   0.00020   3.06534
         Item               Value     Threshold  Converged?
 Maximum Force            0.000019     0.000450     YES
 RMS     Force            0.000008     0.000300     YES
 Maximum Displacement     0.001541     0.001800     YES
 RMS     Displacement     0.000623     0.001200     YES
 Predicted change in Energy=-1.286922D-08
 Optimization completed.
    -- Stationary point found.
                           ----------------------------
                           !   Optimized Parameters   !
                           ! (Angstroms and Degrees)  !
 --------------------------                            --------------------------
 ! Name  Definition              Value          Derivative Info.                !
 --------------------------------------------------------------------------------
 ! R1    R(1,2)                  1.3658         -DE/DX =    0.0                 !
 ! R2    R(1,9)                  1.9624         -DE/DX =    0.0                 !
 ! R3    R(1,10)                 1.0915         -DE/DX =    0.0                 !
 ! R4    R(2,6)                  2.169          -DE/DX =    0.0                 !
 ! R5    R(2,8)                  1.451          -DE/DX =    0.0                 !
 ! R6    R(3,6)                  1.7378         -DE/DX =    0.0                 !
 ! R7    R(4,7)                  1.7368         -DE/DX =    0.0                 !
 ! R8    R(5,7)                  1.7324         -DE/DX =    0.0                 !
 ! R9    R(6,7)                  2.7458         -DE/DX =    0.0                 !
 ! A1    A(2,1,9)              125.6169         -DE/DX =    0.0                 !
 ! A2    A(2,1,10)             120.4367         -DE/DX =    0.0                 !
 ! A3    A(9,1,10)             113.9447         -DE/DX =    0.0                 !
 ! A4    A(1,2,6)              128.236          -DE/DX =    0.0                 !
 ! A5    A(1,2,8)              118.1681         -DE/DX =    0.0                 !
 ! A6    A(6,2,8)              113.5636         -DE/DX =    0.0                 !
 ! A7    A(2,6,3)               99.4785         -DE/DX =    0.0                 !
 ! A8    A(2,6,7)              113.0464         -DE/DX =    0.0                 !
 ! A9    A(3,6,7)              116.4932         -DE/DX =    0.0                 !
 ! A10   A(4,7,5)              104.2985         -DE/DX =    0.0                 !
 ! A11   A(4,7,6)              110.1855         -DE/DX =    0.0                 !
 ! A12   A(5,7,6)              112.3851         -DE/DX =    0.0                 !
 ! D1    D(9,1,2,6)            177.784          -DE/DX =    0.0                 !
 ! D2    D(9,1,2,8)             -0.0015         -DE/DX =    0.0                 !
 ! D3    D(10,1,2,6)            -2.7064         -DE/DX =    0.0                 !
 ! D4    D(10,1,2,8)           179.5082         -DE/DX =    0.0                 !
 ! D5    D(1,2,6,3)              9.0193         -DE/DX =    0.0                 !
 ! D6    D(1,2,6,7)            133.2497         -DE/DX =    0.0                 !
 ! D7    D(8,2,6,3)           -173.1105         -DE/DX =    0.0                 !
 ! D8    D(8,2,6,7)            -48.8801         -DE/DX =    0.0                 !
 ! D9    D(2,6,7,4)            177.1369         -DE/DX =    0.0                 !
 ! D10   D(2,6,7,5)             61.2881         -DE/DX =    0.0                 !
 ! D11   D(3,6,7,4)            -68.532          -DE/DX =    0.0                 !
 ! D12   D(3,6,7,5)            175.6192         -DE/DX =    0.0                 !
 --------------------------------------------------------------------------------
 GradGradGradGradGradGradGradGradGradGradGradGradGradGradGradGradGradGrad

 1\1\GINC-MALLOS71\Freq\RMP2-FC\LANL2DZ\C2H4Br1F1Sn2\MARLIN\24-Oct-2024
 \0\\#N Geom=AllCheck Guess=TCheck SCRF=Check GenChk RMP2(FC)/LANL2DZ F
 req\\Title Card Required\\0,1\C,2.2675270644,2.9352630526,-0.195988893
 9\C,1.8836170599,1.6945492121,0.2265843599\H,-1.0262065639,2.228437452
 6,-0.2360104052\H,-2.0890446994,-2.1379966156,-0.2842637312\H,0.550005
 9887,-2.7539528516,0.1156107913\Sn,-0.1287234644,0.9289276823,0.489128
 8039\Sn,-0.4817330165,-1.5640904049,-0.6061792377\F,2.9178131835,0.747
 6903227,0.5999538006\Br,4.1186581429,3.5686499038,-0.3482171628\H,1.52
 07819449,3.6736896261,-0.493447205\\Version=EM64L-G09RevA.01\State=1-A
 \HF=-196.7832766\MP2=-197.1977436\RMSD=2.533e-09\RMSF=1.094e-05\ZeroPo
 int=0.0429306\Thermal=0.053029\Dipole=-1.2376432,0.0429557,-0.2701785\
 DipoleDeriv=0.543233,0.2757273,-0.0401387,0.374286,0.1538149,-0.060197
 ,-0.0809101,-0.1283351,-0.2552421,-0.0606923,-0.5368151,0.2525396,-0.5
 292169,-0.0597819,-0.1457314,0.2982637,0.2166675,0.1443109,-0.2905099,
 -0.062098,-0.0026077,0.0856188,-0.3643871,0.054231,-0.0323442,0.287744
 8,-0.0513051,-0.3589598,-0.1408249,-0.0418491,-0.140683,-0.3159592,0.0
 401417,0.1157468,0.2763068,-0.0405411,-0.2237609,-0.0032637,0.0009359,
 0.0460419,-0.3719909,0.0604276,0.015824,0.32952,-0.0377299,1.0106011,0
 .4903964,0.0374191,0.1842336,0.8208053,-0.100094,-0.141571,-0.590022,0
 .1823139,0.5884985,0.0984209,0.0288259,0.0645531,0.7263509,-0.0919455,
 -0.1383428,-0.6034984,0.1257222,-0.5886256,0.275066,-0.2315731,0.12418
 82,-0.4886249,0.1653645,-0.0612862,0.1311661,-0.2596482,-0.4804245,-0.
 3735073,0.0124797,-0.1985706,-0.2024532,0.0202666,0.0254223,0.0260753,
 0.010799,-0.1393597,-0.0231015,-0.0160316,-0.0104511,0.102226,0.057536
 4,-0.0008024,0.054375,0.1813205\Polar=128.9662054,45.6442571,176.97798
 41,6.5776015,32.9407807,71.705526\PG=C01 [X(C2H4Br1F1Sn2)]\NImag=0\\0.
 41718993,-0.02914769,0.67162374,0.02431282,-0.21489928,0.15207061,-0.1
 0321799,-0.09533012,0.03141170,0.36705018,-0.11696129,-0.40762155,0.12
 853252,0.07315140,0.56210440,0.03957856,0.12910043,-0.07801999,-0.0188
 5085,-0.17199907,0.13022745,0.00092100,-0.00003625,0.00000850,-0.00191
 905,0.00787533,-0.00457450,0.04494141,0.00088228,-0.00047432,0.0001736
 6,-0.00105845,0.00137155,-0.00026519,-0.04504570,0.07683140,-0.0002388
 7,0.00000489,-0.00005808,0.00112474,0.00052024,-0.00053852,0.02571355,
 -0.03697380,0.02643569,0.00020668,0.00023112,-0.00009667,0.00004803,0.
 00001220,-0.00015595,0.00009283,-0.00021228,-0.00010623,0.11316496,-0.
 00023451,0.00017243,-0.00008276,0.00082463,-0.00183809,-0.00209608,0.0
 0036304,-0.00026484,-0.00099201,0.03547015,0.02455831,-0.00096529,-0.0
 0056083,0.00021804,0.00043571,-0.00120741,0.00028764,0.00012209,-0.001
 02923,-0.00117356,-0.01835804,-0.00846544,0.00969056,0.00017717,-0.000
 09273,0.00002228,-0.00018168,0.00074240,-0.00009581,0.00021060,-0.0002
 2722,-0.00080043,-0.00546529,0.00687914,-0.00461463,0.05576465,0.00019
 642,0.00015247,-0.00005684,0.00021667,-0.00045197,-0.00091172,-0.00016
 955,-0.00117240,-0.00216449,-0.00262136,0.00295837,-0.00048355,-0.0487
 7801,0.06724437,-0.00023481,-0.00072637,0.00026739,-0.00007913,0.00049
 852,-0.00180416,-0.00076071,-0.00208256,0.00016631,0.00233394,-0.00067
 514,0.00078380,0.02991496,-0.03489054,0.02581390,-0.00497018,-0.001919
 12,0.00056798,-0.09660478,-0.03762080,0.01741801,-0.03940703,0.0447350
 4,-0.02811650,-0.00047429,-0.00449607,-0.00279914,0.00036995,0.0029967
 0,0.00068480,0.15680539,-0.01279002,-0.00338469,0.00116886,-0.03653740
 ,-0.02896148,0.00890455,0.03671283,-0.08024377,0.04315632,0.00168064,0
 .00269874,-0.00131918,-0.00058941,0.00110630,-0.00280580,0.00381222,0.
 18507722,0.00296061,0.00090348,0.00105668,0.01217474,0.00199523,-0.013
 85814,-0.02129898,0.03290856,-0.02760019,0.00194713,0.00651286,0.00089
 048,0.00103588,0.00795453,0.00202726,0.01614308,-0.02862361,0.05415357
 ,-0.00129621,0.00033022,-0.00027108,0.00100933,-0.00607565,-0.00206809
 ,0.00054780,0.00269641,0.00151509,-0.10740094,-0.03822459,0.02579558,-
 0.05105687,0.04886019,-0.03270476,-0.00914925,-0.00764736,-0.00465652,
 0.16792057,0.00092955,0.00048491,-0.00020583,-0.00073476,0.00128026,-0
 .00090038,-0.00014468,0.00197280,-0.00266759,-0.03438078,-0.02835389,0
 .01338358,0.04232364,-0.07004265,0.04102843,-0.00860950,-0.06946501,-0
 .02504221,-0.00073388,0.16354956,0.00184236,0.00195429,-0.00056048,-0.
 00000907,0.00250439,0.00240043,0.00094081,0.00787500,0.00186896,0.0144
 5898,0.00565409,-0.01084707,-0.02551822,0.03055959,-0.02741544,-0.0028
 8462,-0.02411824,-0.01804173,0.01200885,-0.02555590,0.05313219,-0.0060
 7670,-0.00008347,-0.00037299,-0.14369008,0.09602811,-0.03655901,-0.005
 05860,-0.00178428,0.00081722,-0.00002107,-0.00026081,0.00029762,0.0001
 5252,-0.00044969,0.00046611,-0.01044008,0.01590268,-0.00728731,-0.0002
 0716,0.00047934,-0.00079458,0.15825253,0.04280612,-0.03534247,0.015236
 34,0.06475821,-0.11071527,0.03099265,0.00017296,0.00131998,-0.00053098
 ,-0.00017110,0.00016342,-0.00014546,-0.00027576,0.00021072,-0.00049029
 ,0.00018975,-0.00430687,0.00238189,0.00106750,0.00009363,0.00089945,-0
 .10657168,0.14970668,-0.01531770,0.01323880,-0.00205326,-0.02707193,0.
 03302532,-0.04163572,-0.00024794,-0.00021808,0.00108060,-0.00001394,0.
 00001245,0.00010807,0.00005163,-0.00002273,0.00011685,-0.00046979,0.00
 209541,0.00007390,0.00012086,0.00014490,-0.00030445,0.04225013,-0.0508
 3519,0.03725673,-0.11715180,-0.02781833,0.00639077,-0.02779807,-0.0044
 1901,0.00032637,-0.00026348,0.00007402,0.00008289,-0.00011963,-0.00029
 304,0.00005072,0.00002652,-0.00022504,0.00033841,0.00398375,0.00008371
 ,-0.00129755,-0.00035978,0.00084048,0.00001421,0.00523587,0.00181109,-
 0.00016248,0.15540975,-0.02701657,-0.03584263,0.00566747,-0.02709468,-
 0.00528483,0.00486548,0.00000279,0.00028390,-0.00002787,-0.00002800,-0
 .00006340,-0.00009357,0.00003000,-0.00003009,0.00021942,0.00166936,-0.
 00098655,0.00039567,-0.00021225,0.00053018,0.00006949,-0.00121891,0.00
 112371,-0.00215143,0.04708335,0.03684112,0.00573973,0.00555907,-0.0192
 1555,0.00863476,0.00557492,0.00900964,0.00007766,-0.00005869,0.0000609
 2,0.00004047,0.00035422,0.00006289,-0.00000633,0.00016111,0.00013632,-
 0.00118328,0.00047313,0.00217407,0.00042331,-0.00011264,-0.00045688,0.
 00061243,-0.00201032,-0.00424754,-0.01106396,-0.00876050,0.01001102,-0
 .18578189,0.15386637,-0.06197331,0.00530412,-0.01273269,0.00498126,-0.
 00006548,-0.00005983,0.00000855,-0.00003128,-0.00002793,0.00003538,0.0
 0000244,-0.00002633,0.00004118,-0.00011348,-0.00062789,0.00027891,-0.0
 0000749,0.00003060,-0.00005873,0.00185278,-0.00378708,0.00086116,-0.01
 896314,0.00678490,-0.00327477,0.19780343,0.14133571,-0.18976788,0.0644
 6587,0.02180451,-0.00988303,0.00230933,0.00026921,0.00037570,-0.000324
 71,0.00001941,-0.00003106,-0.00007891,-0.00001206,0.00002489,-0.000075
 67,-0.00075757,-0.00153388,0.00061359,-0.00006058,-0.00004978,0.000157
 84,-0.00204128,-0.00225351,0.00471055,-0.01713723,0.00342859,-0.001180
 31,-0.14342011,0.19968996,-0.05767741,0.06542552,-0.05370536,-0.007770
 66,0.00055535,-0.00606863,0.00001953,-0.00032968,-0.00024214,-0.000049
 70,-0.00022219,-0.00002085,0.00001068,-0.00014537,-0.00009224,0.000639
 46,0.00106857,-0.00087590,-0.00016324,-0.00007237,0.00022446,0.0005703
 7,0.00450192,0.00960483,0.00532060,-0.00018415,0.00246511,0.05910037,-
 0.07059759,0.04871073\\-0.00002225,0.00001575,-0.00001288,0.00002613,-
 0.00003653,0.00000577,-0.00000039,0.00000006,0.00000302,-0.00000137,0.
 00000185,-0.00000055,0.00000339,0.00000332,0.00000220,-0.00000586,0.00
 000267,-0.00000321,0.00000158,-0.00000186,-0.00000160,-0.00001350,0.00
 001193,0.00000126,0.00001116,-0.00000265,-0.00000004,0.00000110,0.0000
 0546,0.00000603\\\@


 IT PROBABLY IS NOT POSSIBLE FOR A SCIENTIST TO INTERROGATE NATURE 
 FROM A WHOLLY DISINTERESTED VIEWPOINT.
 EVEN IF HE HAS NO PARTICULAR AXE TO GRIND, HE IS LIKELY TO HAVE 
 A DISTINCTIVE WAY OF VIEWING NATURE.

                                                   -- JOHN LOSEE
 Job cpu time:  0 days  0 hours  3 minutes 43.0 seconds.
 File lengths (MBytes):  RWF=    145 Int=      0 D2E=      0 Chk=      1 Scr=      1
 Normal termination of Gaussian 09 at Thu Oct 24 12:19:50 2024.
