 Entering Gaussian System, Link 0=g09
 Initial command:
 /u/local/G09/g09/l1.exe /tmp1/marlin/22842.mallos00.local/Gau-43992.inp -scrdir=/tmp1/marlin/22842.mallos00.local/
 Entering Link 1 = /u/local/G09/g09/l1.exe PID=     43993.
  
 Copyright (c) 1988,1990,1992,1993,1995,1998,2003,2009, Gaussian, Inc.
                  All Rights Reserved.
  
 This is part of the Gaussian(R) 09 program.  It is based on
 the Gaussian(R) 03 system (copyright 2003, Gaussian, Inc.),
 the Gaussian(R) 98 system (copyright 1998, Gaussian, Inc.),
 the Gaussian(R) 94 system (copyright 1995, Gaussian, Inc.),
 the Gaussian 92(TM) system (copyright 1992, Gaussian, Inc.),
 the Gaussian 90(TM) system (copyright 1990, Gaussian, Inc.),
 the Gaussian 88(TM) system (copyright 1988, Gaussian, Inc.),
 the Gaussian 86(TM) system (copyright 1986, Carnegie Mellon
 University), and the Gaussian 82(TM) system (copyright 1983,
 Carnegie Mellon University). Gaussian is a federally registered
 trademark of Gaussian, Inc.
  
 This software contains proprietary and confidential information,
 including trade secrets, belonging to Gaussian, Inc.
  
 This software is provided under written license and may be
 used, copied, transmitted, or stored only in accord with that
 written license.
  
 The following legend is applicable only to US Government
 contracts under FAR:
  
                    RESTRICTED RIGHTS LEGEND
  
 Use, reproduction and disclosure by the US Government is
 subject to restrictions as set forth in subparagraphs (a)
 and (c) of the Commercial Computer Software - Restricted
 Rights clause in FAR 52.227-19.
  
 Gaussian, Inc.
 340 Quinnipiac St., Bldg. 40, Wallingford CT 06492
  
  
 ---------------------------------------------------------------
 Warning -- This program may not be used in any manner that
 competes with the business of Gaussian, Inc. or will provide
 assistance to any competitor of Gaussian, Inc.  The licensee
 of this program is prohibited from giving any competitor of
 Gaussian, Inc. access to this program.  By using this program,
 the user acknowledges that Gaussian, Inc. is engaged in the
 business of creating and licensing software in the field of
 computational chemistry and represents and warrants to the
 licensee that it is not a competitor of Gaussian, Inc. and that
 it will not use this program in any manner prohibited above.
 ---------------------------------------------------------------
  

 Cite this work as:
 Gaussian 09, Revision A.01,
 M. J. Frisch, G. W. Trucks, H. B. Schlegel, G. E. Scuseria, 
 M. A. Robb, J. R. Cheeseman, G. Scalmani, V. Barone, B. Mennucci, 
 G. A. Petersson, H. Nakatsuji, M. Caricato, X. Li, H. P. Hratchian, 
 A. F. Izmaylov, J. Bloino, G. Zheng, J. L. Sonnenberg, M. Hada, 
 M. Ehara, K. Toyota, R. Fukuda, J. Hasegawa, M. Ishida, T. Nakajima, 
 Y. Honda, O. Kitao, H. Nakai, T. Vreven, J. A. Montgomery, Jr., 
 J. E. Peralta, F. Ogliaro, M. Bearpark, J. J. Heyd, E. Brothers, 
 K. N. Kudin, V. N. Staroverov, R. Kobayashi, J. Normand, 
 K. Raghavachari, A. Rendell, J. C. Burant, S. S. Iyengar, J. Tomasi, 
 M. Cossi, N. Rega, J. M. Millam, M. Klene, J. E. Knox, J. B. Cross, 
 V. Bakken, C. Adamo, J. Jaramillo, R. Gomperts, R. E. Stratmann, 
 O. Yazyev, A. J. Austin, R. Cammi, C. Pomelli, J. W. Ochterski, 
 R. L. Martin, K. Morokuma, V. G. Zakrzewski, G. A. Voth, 
 P. Salvador, J. J. Dannenberg, S. Dapprich, A. D. Daniels, 
 O. Farkas, J. B. Foresman, J. V. Ortiz, J. Cioslowski, 
 and D. J. Fox, Gaussian, Inc., Wallingford CT, 2009.
 
 ******************************************
 Gaussian 09:  EM64L-G09RevA.01  8-May-2009
                25-Oct-2024 
 ******************************************
 %mem=103GB
 %nproc=20
 Will use up to   20 processors via shared memory.
 %chk=3-sddmp2.chk
 ----------------------------------------
 # opt freq=noraman mp2/sdd geom=allcheck
 ----------------------------------------
 1/18=20,19=15,29=7,38=1/1,3;
 2/9=110,12=2,40=1/2;
 3/5=17,6=7,11=9,14=-4,16=1,25=1,30=1,71=1/1,2,3;
 4//1;
 5/5=2,38=5/2;
 8/6=4,10=1/1;
 9/15=2,16=-3/6;
 10/5=1/2;
 6/7=2,8=2,9=2,10=2/1;
 7/12=2/1,2,3,16;
 1/18=20,19=15/3(2);
 2/9=110/2;
 99//99;
 2/9=110/2;
 3/5=17,6=7,11=9,14=-2,16=1,25=1,30=1,71=1/1,2,3;
 4/5=5,16=3/1;
 5/5=2,38=5/2;
 8/6=4,10=1/1;
 9/15=2,16=-3/6;
 10/5=1/2;
 7/12=2/1,2,3,16;
 1/18=20,19=15/3(-8);
 2/9=110/2;
 6/7=2,8=2,9=2,10=2/1;
 99//99;
 -------------------
 Title Card Required
 -------------------
 Redundant internal coordinates taken from checkpoint file:
 3-sddmp2.chk
 Charge =  0 Multiplicity = 1
 C,0,2.2523525102,2.9004306184,-0.2220879997
 C,0,1.889845939,1.7260314093,0.2756329755
 H,0,-0.9826511084,2.2667875619,-0.1905193258
 H,0,-2.0495241228,-2.1880652343,-0.3555575601
 H,0,0.5322383183,-2.7894379521,0.0308572853
 Sn,0,-0.139984659,0.9870152894,0.6122434634
 Sn,0,-0.4681910505,-1.5327178414,-0.5945434167
 F,0,2.8840468588,0.8396814554,0.6923953304
 Br,0,4.0765325795,3.4947547462,-0.4160481338
 H,0,1.5380303749,3.6166873272,-0.5652014984
 Recover connectivity data from disk.

 GradGradGradGradGradGradGradGradGradGradGradGradGradGradGradGradGradGrad
 Berny optimization.
 Initialization pass.
                           ----------------------------
                           !    Initial Parameters    !
                           ! (Angstroms and Degrees)  !
 --------------------------                            --------------------------
 ! Name  Definition              Value          Derivative Info.                !
 --------------------------------------------------------------------------------
 ! R1    R(1,2)                  1.326          estimate D2E/DX2                !
 ! R2    R(1,9)                  1.9283         estimate D2E/DX2                !
 ! R3    R(1,10)                 1.0682         estimate D2E/DX2                !
 ! R4    R(2,6)                  2.1862         estimate D2E/DX2                !
 ! R5    R(2,8)                  1.3956         estimate D2E/DX2                !
 ! R6    R(3,6)                  1.7298         estimate D2E/DX2                !
 ! R7    R(4,7)                  1.7284         estimate D2E/DX2                !
 ! R8    R(5,7)                  1.7238         estimate D2E/DX2                !
 ! R9    R(6,7)                  2.813          estimate D2E/DX2                !
 ! A1    A(2,1,9)              124.7034         estimate D2E/DX2                !
 ! A2    A(2,1,10)             122.1147         estimate D2E/DX2                !
 ! A3    A(9,1,10)             113.1809         estimate D2E/DX2                !
 ! A4    A(1,2,6)              127.6609         estimate D2E/DX2                !
 ! A5    A(1,2,8)              118.6732         estimate D2E/DX2                !
 ! A6    A(6,2,8)              113.625          estimate D2E/DX2                !
 ! A7    A(2,6,3)               97.513          estimate D2E/DX2                !
 ! A8    A(2,6,7)              110.1855         estimate D2E/DX2                !
 ! A9    A(3,6,7)              114.0018         estimate D2E/DX2                !
 ! A10   A(4,7,5)              101.7944         estimate D2E/DX2                !
 ! A11   A(4,7,6)              112.7723         estimate D2E/DX2                !
 ! A12   A(5,7,6)              115.4476         estimate D2E/DX2                !
 ! D1    D(9,1,2,6)            177.3587         estimate D2E/DX2                !
 ! D2    D(9,1,2,8)             -0.1559         estimate D2E/DX2                !
 ! D3    D(10,1,2,6)            -3.0207         estimate D2E/DX2                !
 ! D4    D(10,1,2,8)           179.4647         estimate D2E/DX2                !
 ! D5    D(1,2,6,3)              8.5474         estimate D2E/DX2                !
 ! D6    D(1,2,6,7)            127.6007         estimate D2E/DX2                !
 ! D7    D(8,2,6,3)           -173.8325         estimate D2E/DX2                !
 ! D8    D(8,2,6,7)            -54.7793         estimate D2E/DX2                !
 ! D9    D(2,6,7,4)            179.436          estimate D2E/DX2                !
 ! D10   D(2,6,7,5)             62.9961         estimate D2E/DX2                !
 ! D11   D(3,6,7,4)            -72.1313         estimate D2E/DX2                !
 ! D12   D(3,6,7,5)            171.4288         estimate D2E/DX2                !
 --------------------------------------------------------------------------------
 Trust Radius=3.00D-01 FncErr=1.00D-07 GrdErr=1.00D-07
 Number of steps in this run=  43 maximum allowed number of steps= 100.
 GradGradGradGradGradGradGradGradGradGradGradGradGradGradGradGradGradGrad

                          Input orientation:                          
 ---------------------------------------------------------------------
 Center     Atomic      Atomic             Coordinates (Angstroms)
 Number     Number       Type             X           Y           Z
 ---------------------------------------------------------------------
      1          6           0        2.252353    2.900431   -0.222088
      2          6           0        1.889846    1.726031    0.275633
      3          1           0       -0.982651    2.266788   -0.190519
      4          1           0       -2.049524   -2.188065   -0.355558
      5          1           0        0.532238   -2.789438    0.030857
      6         50           0       -0.139985    0.987015    0.612243
      7         50           0       -0.468191   -1.532718   -0.594543
      8          9           0        2.884047    0.839681    0.692395
      9         35           0        4.076533    3.494755   -0.416048
     10          1           0        1.538030    3.616687   -0.565201
 ---------------------------------------------------------------------
                    Distance matrix (angstroms):
                    1          2          3          4          5
     1  C    0.000000
     2  C    1.326028   0.000000
     3  H    3.296627   2.959891   0.000000
     4  H    6.664589   5.589024   4.583794   0.000000
     5  H    5.949570   4.721491   5.282927   2.678892   0.000000
     6  Sn   3.174987   2.186244   1.729836   3.829375   3.879625
     7  Sn   5.214680   4.115458   3.855405   1.728354   1.723755
     8  F    2.341368   1.395615   4.215154   5.882651   4.374831
     9  Br   1.928335   2.896274   5.210960   8.356236   7.228611
    10  H    1.068179   2.098894   2.883826   6.827126   6.511939
                    6          7          8          9         10
     6  Sn   0.000000
     7  Sn   2.813025   0.000000
     8  F    3.028679   4.303718   0.000000
     9  Br   5.012500   6.779517   3.114496   0.000000
    10  H    3.334259   5.526496   3.332427   2.545802   0.000000
 Stoichiometry    C2H4BrFSn2
 Framework group  C1[X(C2H4BrFSn2)]
 Deg. of freedom    24
 Full point group                 C1      NOp   1
 Largest Abelian subgroup         C1      NOp   1
 Largest concise Abelian subgroup C1      NOp   1
                         Standard orientation:                         
 ---------------------------------------------------------------------
 Center     Atomic      Atomic             Coordinates (Angstroms)
 Number     Number       Type             X           Y           Z
 ---------------------------------------------------------------------
      1          6           0        2.354041    0.393705   -0.441459
      2          6           0        1.263067    0.157930    0.274458
      3          1           0       -0.353890    2.055194   -1.321409
      4          1           0       -4.294264   -0.044592   -0.284334
      5          1           0       -2.923977   -1.835460    1.161891
      6         50           0       -0.678405    1.150673    0.116945
      7         50           0       -2.724460   -0.758495   -0.169149
      8          9           0        1.323209   -0.794575    1.292721
      9         35           0        4.049611   -0.487060   -0.181134
     10          1           0        2.367452    1.104448   -1.238749
 ---------------------------------------------------------------------
 Rotational constants (GHZ):      1.6146936      0.2087156      0.1913730
 Standard basis: SDD (6D, 10F)
 There are    65 symmetry adapted basis functions of A   symmetry.
 Integral buffers will be    131072 words long.
 Raffenetti 1 integral format.
 Two-electron integral symmetry is turned on.
    65 basis functions,   139 primitive gaussians,    65 cartesian basis functions
    20 alpha electrons       20 beta electrons
       nuclear repulsion energy       134.5961865619 Hartrees.
 NAtoms=   10 NActive=   10 NUniq=   10 SFac= 7.50D-01 NAtFMM=   80 NAOKFM=F Big=F
 One-electron integrals computed using PRISM.
   1 Symmetry operations used in ECPInt.
 ECPInt:  NShTT=     780 NPrTT=    3579 LenC2=     772 LenP2D=    2874.
 LDataN:  DoStor=T MaxTD1= 5 Len=  102
 NBasis=    65 RedAO= T  NBF=    65
 NBsUse=    65 1.00D-06 NBFU=    65
 Harris functional with IExCor=  205 diagonalized for initial guess.
 ExpMin= 3.61D-02 ExpMax= 9.99D+03 ExpMxC= 1.51D+03 IAcc=3 IRadAn=         0 AccDes= 0.00D+00
 HarFok:  IExCor=  205 AccDes= 0.00D+00 IRadAn=         0 IDoV= 1
 ScaDFX=  1.000000  1.000000  1.000000  1.000000
 Defaulting to unpruned grid for atomic number  50.
 Defaulting to unpruned grid for atomic number  50.
 Defaulting to unpruned grid for atomic number  50.
 Defaulting to unpruned grid for atomic number  50.
 Defaulting to unpruned grid for atomic number  50.
 Defaulting to unpruned grid for atomic number  50.
 Defaulting to unpruned grid for atomic number  50.
 Defaulting to unpruned grid for atomic number  50.
 Defaulting to unpruned grid for atomic number  50.
 Defaulting to unpruned grid for atomic number  50.
 Defaulting to unpruned grid for atomic number  50.
 Defaulting to unpruned grid for atomic number  50.
 Defaulting to unpruned grid for atomic number  50.
 Defaulting to unpruned grid for atomic number  50.
 Defaulting to unpruned grid for atomic number  50.
 Defaulting to unpruned grid for atomic number  50.
 Defaulting to unpruned grid for atomic number  50.
 Defaulting to unpruned grid for atomic number  50.
 Defaulting to unpruned grid for atomic number  50.
 Defaulting to unpruned grid for atomic number  50.
 FoFCou: FMM=F IPFlag=           0 FMFlag=      100000 FMFlg1=           0
         NFxFlg=           0 DoJE=T BraDBF=F KetDBF=T FulRan=T
         Omega=  0.000000  0.000000  1.000000  0.000000  0.000000 ICntrl=     500 IOpCl=  0
         NMat0=    1 NMatS0=    1 NMatT0=    0 NMatD0=    1 NMtDS0=    0 NMtDT0=    0
         I1Cent=           4 NGrid=           0.
 Petite list used in FoFCou.
 Initial guess orbital symmetries:
       Occupied  (A) (A) (A) (A) (A) (A) (A) (A) (A) (A) (A) (A)
                 (A) (A) (A) (A) (A) (A) (A) (A)
       Virtual   (A) (A) (A) (A) (A) (A) (A) (A) (A) (A) (A) (A)
                 (A) (A) (A) (A) (A) (A) (A) (A) (A) (A) (A) (A)
                 (A) (A) (A) (A) (A) (A) (A) (A) (A) (A) (A) (A)
                 (A) (A) (A) (A) (A) (A) (A) (A) (A)
 The electronic state of the initial guess is 1-A.
 Requested convergence on RMS density matrix=1.00D-08 within 128 cycles.
 Requested convergence on MAX density matrix=1.00D-06.
 Requested convergence on             energy=1.00D-06.
 No special actions if energy rises.
 Keep R1 ints in memory in canonical form, NReq=3134234.
 SCF Done:  E(RHF) =  -197.004545283     A.U. after   15 cycles
             Convg  =    0.3984D-08             -V/T =  2.0700
 ExpMin= 3.61D-02 ExpMax= 9.99D+03 ExpMxC= 1.51D+03 IAcc=3 IRadAn=         5 AccDes= 0.00D+00
 HarFok:  IExCor=  205 AccDes= 0.00D+00 IRadAn=         5 IDoV=-2
 ScaDFX=  1.000000  1.000000  1.000000  1.000000
 Defaulting to unpruned grid for atomic number  50.
 Defaulting to unpruned grid for atomic number  50.
 Defaulting to unpruned grid for atomic number  50.
 Defaulting to unpruned grid for atomic number  50.
 Defaulting to unpruned grid for atomic number  50.
 Defaulting to unpruned grid for atomic number  50.
 Defaulting to unpruned grid for atomic number  50.
 Defaulting to unpruned grid for atomic number  50.
 Defaulting to unpruned grid for atomic number  50.
 Defaulting to unpruned grid for atomic number  50.
 Defaulting to unpruned grid for atomic number  50.
 Defaulting to unpruned grid for atomic number  50.
 Defaulting to unpruned grid for atomic number  50.
 Defaulting to unpruned grid for atomic number  50.
 Defaulting to unpruned grid for atomic number  50.
 Defaulting to unpruned grid for atomic number  50.
 Defaulting to unpruned grid for atomic number  50.
 Defaulting to unpruned grid for atomic number  50.
 Defaulting to unpruned grid for atomic number  50.
 Defaulting to unpruned grid for atomic number  50.
 Range of M.O.s used for correlation:     4    65
 NBasis=    65 NAE=    20 NBE=    20 NFC=     3 NFV=     0
 NROrb=     62 NOA=    17 NOB=    17 NVA=    45 NVB=    45
 Fully direct method using O(ONN) memory.
 JobTyp=1 Pass  1:  I=   4 to  20 NPSUse= 20 ParTrn=T ParDer=T DoDerP=T.
 Spin components of T(2) and E(2):
     alpha-alpha T2 =       0.2062632778D-01 E2=     -0.4553493834D-01
     alpha-beta  T2 =       0.1574344528D+00 E2=     -0.3117195244D+00
     beta-beta   T2 =       0.2062632778D-01 E2=     -0.4553493834D-01
 ANorm=    0.1094845701D+01
 E2 =    -0.4027894011D+00 EUMP2 =    -0.19740733468384D+03
          IDoAtm=1111111111
          Differentiating once with respect to electric field.
                with respect to dipole field.
          Differentiating once with respect to nuclear coordinates.
          Keep R1 ints in memory in canonical form, NReq=3102463.
          There are     1 degrees of freedom in the 1st order CPHF.  IDoFFX=0.
 LinEq1:  Iter=  0 NonCon=     1 RMS=8.82D-03 Max=1.00D-01
 AX will form     1 AO Fock derivatives at one time.
 LinEq1:  Iter=  1 NonCon=     1 RMS=3.43D-03 Max=3.30D-02
 LinEq1:  Iter=  2 NonCon=     1 RMS=1.11D-03 Max=1.30D-02
 LinEq1:  Iter=  3 NonCon=     1 RMS=2.50D-04 Max=2.11D-03
 LinEq1:  Iter=  4 NonCon=     1 RMS=8.18D-05 Max=7.57D-04
 LinEq1:  Iter=  5 NonCon=     1 RMS=2.66D-05 Max=2.04D-04
 LinEq1:  Iter=  6 NonCon=     1 RMS=7.68D-06 Max=9.20D-05
 LinEq1:  Iter=  7 NonCon=     1 RMS=3.10D-06 Max=3.40D-05
 LinEq1:  Iter=  8 NonCon=     1 RMS=8.41D-07 Max=8.87D-06
 LinEq1:  Iter=  9 NonCon=     1 RMS=2.10D-07 Max=3.73D-06
 LinEq1:  Iter= 10 NonCon=     1 RMS=5.22D-08 Max=6.51D-07
 LinEq1:  Iter= 11 NonCon=     1 RMS=1.07D-08 Max=8.00D-08
 LinEq1:  Iter= 12 NonCon=     1 RMS=1.69D-09 Max=1.11D-08
 LinEq1:  Iter= 13 NonCon=     1 RMS=3.29D-10 Max=2.61D-09
 LinEq1:  Iter= 14 NonCon=     0 RMS=4.96D-11 Max=3.40D-10
 Linear equations converged to 1.000D-10 1.000D-09 after    14 iterations.
 End of Minotr Frequency-dependent properties file   721 does not exist.
 End of Minotr Frequency-dependent properties file   722 does not exist.

 **********************************************************************

            Population analysis using the SCF density.

 **********************************************************************

 Orbital symmetries:
       Occupied  (A) (A) (A) (A) (A) (A) (A) (A) (A) (A) (A) (A)
                 (A) (A) (A) (A) (A) (A) (A) (A)
       Virtual   (A) (A) (A) (A) (A) (A) (A) (A) (A) (A) (A) (A)
                 (A) (A) (A) (A) (A) (A) (A) (A) (A) (A) (A) (A)
                 (A) (A) (A) (A) (A) (A) (A) (A) (A) (A) (A) (A)
                 (A) (A) (A) (A) (A) (A) (A) (A) (A)
 The electronic state is 1-A.
 Alpha  occ. eigenvalues --  -26.29541 -11.34559 -11.31279  -1.60540  -1.11336
 Alpha  occ. eigenvalues --   -1.00287  -0.79699  -0.73045  -0.68037  -0.67487
 Alpha  occ. eigenvalues --   -0.65221  -0.61140  -0.54688  -0.46979  -0.45850
 Alpha  occ. eigenvalues --   -0.44442  -0.41357  -0.40475  -0.37108  -0.28927
 Alpha virt. eigenvalues --   -0.03782   0.07475   0.07985   0.10085   0.11334
 Alpha virt. eigenvalues --    0.11681   0.13907   0.15159   0.16956   0.18572
 Alpha virt. eigenvalues --    0.22052   0.28207   0.33115   0.42141   0.44031
 Alpha virt. eigenvalues --    0.46603   0.47508   0.48421   0.49509   0.49974
 Alpha virt. eigenvalues --    0.54687   0.56382   0.60811   0.62477   0.64416
 Alpha virt. eigenvalues --    0.64987   0.65162   0.75889   0.88219   1.08805
 Alpha virt. eigenvalues --    1.17825   1.19060   1.22558   1.25503   1.28398
 Alpha virt. eigenvalues --    1.32259   1.45777   1.62684   2.24850   6.67195
 Alpha virt. eigenvalues --   12.01969  13.60381  23.69413  24.01957  55.17279
          Condensed to atoms (all electrons):
              1          2          3          4          5          6
     1  C    5.787533   0.203141   0.011431   0.000000   0.000007  -0.061879
     2  C    0.203141   5.518171  -0.032006   0.000060   0.000153   0.214341
     3  H    0.011431  -0.032006   0.877266   0.000017   0.000008   0.343392
     4  H    0.000000   0.000060   0.000017   0.866628  -0.012220  -0.007159
     5  H    0.000007   0.000153   0.000008  -0.012220   0.842073  -0.008285
     6  Sn  -0.061879   0.214341   0.343392  -0.007159  -0.008285   2.766337
     7  Sn  -0.002635  -0.024377  -0.009060   0.330390   0.340416   0.220371
     8  F   -0.052757   0.163234   0.000159   0.000000  -0.000006  -0.027730
     9  Br   0.246762  -0.111170  -0.000222   0.000006  -0.000004   0.001701
    10  H    0.364988  -0.021872  -0.000715   0.000000   0.000000  -0.002218
              7          8          9         10
     1  C   -0.002635  -0.052757   0.246762   0.364988
     2  C   -0.024377   0.163234  -0.111170  -0.021872
     3  H   -0.009060   0.000159  -0.000222  -0.000715
     4  H    0.330390   0.000000   0.000006   0.000000
     5  H    0.340416  -0.000006  -0.000004   0.000000
     6  Sn   0.220371  -0.027730   0.001701  -0.002218
     7  Sn   2.728451   0.001868  -0.000645  -0.000068
     8  F    0.001868   9.271639  -0.000761   0.001728
     9  Br  -0.000645  -0.000761   6.843748  -0.046830
    10  H   -0.000068   0.001728  -0.046830   0.455044
 Mulliken atomic charges:
              1
     1  C   -0.496592
     2  C    0.090323
     3  H   -0.190270
     4  H   -0.177721
     5  H   -0.162142
     6  Sn   0.561128
     7  Sn   0.415289
     8  F   -0.357375
     9  Br   0.067416
    10  H    0.249944
 Sum of Mulliken atomic charges =   0.00000
 Mulliken charges with hydrogens summed into heavy atoms:
              1
     1  C   -0.246648
     2  C    0.090323
     6  Sn   0.370858
     7  Sn   0.075426
     8  F   -0.357375
     9  Br   0.067416
 Sum of Mulliken charges with hydrogens summed into heavy atoms =   0.00000
 Electronic spatial extent (au):  <R**2>=           1169.3820
 Charge=              0.0000 electrons
 Dipole moment (field-independent basis, Debye):
    X=             -3.1590    Y=              1.7219    Z=             -1.9289  Tot=              4.0823
 Quadrupole moment (field-independent basis, Debye-Ang):
   XX=            -72.5288   YY=            -64.5524   ZZ=            -70.5501
   XY=              6.2457   XZ=              0.2030   YZ=              2.7749
 Traceless Quadrupole moment (field-independent basis, Debye-Ang):
   XX=             -3.3183   YY=              4.6580   ZZ=             -1.3397
   XY=              6.2457   XZ=              0.2030   YZ=              2.7749
 Octapole moment (field-independent basis, Debye-Ang**2):
  XXX=           -103.0112  YYY=              5.9875  ZZZ=             -5.9902  XYY=            -34.0662
  XXY=             -6.6678  XXZ=            -15.2232  XZZ=            -29.2993  YZZ=              3.6459
  YYZ=             -4.1054  XYZ=             -6.0554
 Hexadecapole moment (field-independent basis, Debye-Ang**3):
 XXXX=          -2951.3990 YYYY=           -369.4699 ZZZZ=           -223.7787 XXXY=             31.1245
 XXXZ=             51.4818 YYYX=             21.5375 YYYZ=             34.1807 ZZZX=             15.2572
 ZZZY=             23.7776 XXYY=           -512.0274 XXZZ=           -516.2079 YYZZ=           -107.7150
 XXYZ=             16.7500 YYXZ=             17.1595 ZZXY=             12.2321
 N-N= 1.345961865619D+02 E-N=-7.268727950727D+02  KE= 1.841112655480D+02
   1 Symmetry operations used in ECPInt.
 ECPInt:  NShTT=     780 NPrTT=    3579 LenC2=     772 LenP2D=    2874.
 LDataN:  DoStor=T MaxTD1= 6 Len=  172
 Calling FoFJK, ICntrl=      2127 FMM=F ISym2X=0 I1Cent= 0 IOpClX= 0 NMat=1 NMatS=1 NMatT=0.
 ***** Axes restored to original set *****
 -------------------------------------------------------------------
 Center     Atomic                   Forces (Hartrees/Bohr)
 Number     Number              X              Y              Z
 -------------------------------------------------------------------
      1        6           0.012098363    0.028098889   -0.011639968
      2        6          -0.030681378   -0.019457067    0.008127057
      3        1          -0.003393851    0.002852873   -0.001651843
      4        1          -0.004357076   -0.000446741    0.000407858
      5        1           0.003565285   -0.002100610    0.001803618
      6       50          -0.002002768   -0.008832644   -0.001647231
      7       50           0.001283771    0.008426195    0.000430025
      8        9           0.023915889   -0.023027895    0.010648707
      9       35           0.011363870    0.004160083   -0.001574477
     10        1          -0.011792105    0.010326917   -0.004903746
 -------------------------------------------------------------------
 Cartesian Forces:  Max     0.030681378 RMS     0.011988027

 GradGradGradGradGradGradGradGradGradGradGradGradGradGradGradGradGradGrad
 Berny optimization.
 Internal  Forces:  Max     0.047707235 RMS     0.011134400
 Search for a local minimum.
 Step number   1 out of a maximum of   43
 All quantities printed in internal units (Hartrees-Bohrs-Radians)
 Mixed Optimization -- RFO/linear search
 Second derivative matrix not updated -- first step.
     Eigenvalues ---    0.00230   0.00230   0.01714   0.03067   0.03067
     Eigenvalues ---    0.04064   0.04413   0.06795   0.11233   0.11416
     Eigenvalues ---    0.12004   0.12046   0.12176   0.16000   0.16000
     Eigenvalues ---    0.16000   0.16934   0.22000   0.23712   0.24990
     Eigenvalues ---    0.25000   0.37461   0.46355   0.604541000.00000
     Eigenvalues --- 1000.000001000.000001000.000001000.000001000.00000
     Eigenvalues --- 1000.000001000.000001000.00000
 RFO step:  Lambda=-9.34186702D-03 EMin= 2.30000000D-03
 Linear search not attempted -- first point.
 Iteration  1 RMS(Cart)=  0.04426688 RMS(Int)=  0.00025004
 Iteration  2 RMS(Cart)=  0.00048542 RMS(Int)=  0.00005037
 Iteration  3 RMS(Cart)=  0.00000011 RMS(Int)=  0.00005037
 Variable       Old X    -DE/DX   Delta X   Delta X   Delta X     New X
                                 (Linear)    (Quad)   (Total)
    R1        2.50583   0.04771   0.00000   0.07771   0.07771   2.58354
    R2        3.64402   0.01219   0.00000   0.06823   0.06823   3.71225
    R3        2.01857   0.01639   0.00000   0.04268   0.04268   2.06124
    R4        4.13140   0.00449   0.00000   0.03633   0.03633   4.16773
    R5        2.63733   0.03484   0.00000   0.07368   0.07368   2.71101
    R6        3.26892   0.00453   0.00000   0.03502   0.03502   3.30393
    R7        3.26612   0.00421   0.00000   0.03245   0.03245   3.29857
    R8        3.25742   0.00426   0.00000   0.03246   0.03246   3.28988
    R9        5.31585  -0.00646   0.00000  -0.08353  -0.08353   5.23232
    A1        2.17649   0.00206   0.00000   0.00897   0.00897   2.18545
    A2        2.13130  -0.00216   0.00000  -0.01116  -0.01116   2.12014
    A3        1.97538   0.00010   0.00000   0.00218   0.00217   1.97755
    A4        2.22810  -0.00405   0.00000  -0.01553  -0.01553   2.21257
    A5        2.07124   0.00373   0.00000   0.01446   0.01446   2.08569
    A6        1.98313   0.00033   0.00000   0.00133   0.00132   1.98445
    A7        1.70192   0.00197   0.00000   0.02473   0.02464   1.72656
    A8        1.92310   0.00023   0.00000   0.00509   0.00502   1.92812
    A9        1.98971  -0.00068   0.00000   0.00226   0.00206   1.99177
   A10        1.77665   0.00268   0.00000   0.01826   0.01825   1.79489
   A11        1.96825  -0.00167   0.00000  -0.00846  -0.00848   1.95977
   A12        2.01494  -0.00266   0.00000  -0.01440  -0.01441   2.00053
    D1        3.09549   0.00032   0.00000   0.00992   0.00993   3.10542
    D2       -0.00272   0.00014   0.00000   0.00160   0.00159  -0.00113
    D3       -0.05272   0.00017   0.00000   0.00621   0.00623  -0.04649
    D4        3.13225  -0.00001   0.00000  -0.00210  -0.00211   3.13014
    D5        0.14918  -0.00021   0.00000  -0.00681  -0.00688   0.14230
    D6        2.22705   0.00008   0.00000   0.00975   0.00985   2.23691
    D7       -3.03395   0.00005   0.00000   0.00146   0.00136  -3.03259
    D8       -0.95608   0.00034   0.00000   0.01802   0.01809  -0.93799
    D9        3.13175  -0.00088   0.00000  -0.01319  -0.01319   3.11856
   D10        1.09949  -0.00129   0.00000  -0.02075  -0.02076   1.07873
   D11       -1.25893   0.00129   0.00000   0.02118   0.02118  -1.23775
   D12        2.99200   0.00089   0.00000   0.01362   0.01361   3.00561
         Item               Value     Threshold  Converged?
 Maximum Force            0.047707     0.000450     NO 
 RMS     Force            0.011134     0.000300     NO 
 Maximum Displacement     0.118053     0.001800     NO 
 RMS     Displacement     0.044437     0.001200     NO 
 Predicted change in Energy=-4.827179D-03
 GradGradGradGradGradGradGradGradGradGradGradGradGradGradGradGradGradGrad

                          Input orientation:                          
 ---------------------------------------------------------------------
 Center     Atomic      Atomic             Coordinates (Angstroms)
 Number     Number       Type             X           Y           Z
 ---------------------------------------------------------------------
      1          6           0        2.265696    2.917059   -0.221201
      2          6           0        1.901383    1.698573    0.280473
      3          1           0       -1.027834    2.247844   -0.204571
      4          1           0       -2.078253   -2.171325   -0.348087
      5          1           0        0.550120   -2.773482    0.048628
      6         50           0       -0.153201    0.958469    0.588719
      7         50           0       -0.476366   -1.523474   -0.595301
      8          9           0        2.915916    0.777210    0.704623
      9         35           0        4.113522    3.552457   -0.423253
     10          1           0        1.521712    3.637836   -0.562859
 ---------------------------------------------------------------------
                    Distance matrix (angstroms):
                    1          2          3          4          5
     1  C    0.000000
     2  C    1.367153   0.000000
     3  H    3.360872   3.019484   0.000000
     4  H    6.691609   5.586475   4.544561   0.000000
     5  H    5.949644   4.677494   5.269513   2.725494   0.000000
     6  Sn   3.216070   2.205468   1.748365   3.791971   3.835860
     7  Sn   5.232321   4.099056   3.831401   1.745527   1.740930
     8  F    2.420514   1.434604   4.306108   5.894386   4.316797
     9  Br   1.964438   2.970803   5.308801   8.432402   7.275851
    10  H    1.090762   2.148511   2.925856   6.837560   6.513287
                    6          7          8          9         10
     6  Sn   0.000000
     7  Sn   2.768823   0.000000
     8  F    3.076649   4.300062   0.000000
     9  Br   5.094878   6.845564   3.226199   0.000000
    10  H    3.363105   5.534663   3.425419   2.596971   0.000000
 Stoichiometry    C2H4BrFSn2
 Framework group  C1[X(C2H4BrFSn2)]
 Deg. of freedom    24
 Full point group                 C1      NOp   1
 Largest Abelian subgroup         C1      NOp   1
 Largest concise Abelian subgroup C1      NOp   1
                         Standard orientation:                         
 ---------------------------------------------------------------------
 Center     Atomic      Atomic             Coordinates (Angstroms)
 Number     Number       Type             X           Y           Z
 ---------------------------------------------------------------------
      1          6           0        2.369667    0.416463   -0.425453
      2          6           0        1.246198    0.139452    0.302688
      3          1           0       -0.409550    2.093663   -1.296323
      4          1           0       -4.306527   -0.016860   -0.290193
      5          1           0       -2.899276   -1.855614    1.147496
      6         50           0       -0.716668    1.130095    0.129859
      7         50           0       -2.725512   -0.749157   -0.185320
      8          9           0        1.297972   -0.862951    1.327675
      9         35           0        4.113818   -0.457189   -0.193750
     10          1           0        2.363806    1.164589   -1.219202
 ---------------------------------------------------------------------
 Rotational constants (GHZ):      1.6339467      0.2044581      0.1884648
 Standard basis: SDD (6D, 10F)
 There are    65 symmetry adapted basis functions of A   symmetry.
 Integral buffers will be    131072 words long.
 Raffenetti 1 integral format.
 Two-electron integral symmetry is turned on.
    65 basis functions,   139 primitive gaussians,    65 cartesian basis functions
    20 alpha electrons       20 beta electrons
       nuclear repulsion energy       131.9577398118 Hartrees.
 NAtoms=   10 NActive=   10 NUniq=   10 SFac= 7.50D-01 NAtFMM=   80 NAOKFM=F Big=F
 One-electron integrals computed using PRISM.
   1 Symmetry operations used in ECPInt.
 ECPInt:  NShTT=     780 NPrTT=    3579 LenC2=     772 LenP2D=    2864.
 LDataN:  DoStor=T MaxTD1= 5 Len=  102
 NBasis=    65 RedAO= T  NBF=    65
 NBsUse=    65 1.00D-06 NBFU=    65
 Initial guess read from the read-write file.
 B after Tr=     0.000000    0.000000    0.000000
         Rot=    1.000000    0.000000    0.000000    0.000000 Ang=   0.00 deg.
 Initial guess orbital symmetries:
       Occupied  (A) (A) (A) (A) (A) (A) (A) (A) (A) (A) (A) (A)
                 (A) (A) (A) (A) (A) (A) (A) (A)
       Virtual   (A) (A) (A) (A) (A) (A) (A) (A) (A) (A) (A) (A)
                 (A) (A) (A) (A) (A) (A) (A) (A) (A) (A) (A) (A)
                 (A) (A) (A) (A) (A) (A) (A) (A) (A) (A) (A) (A)
                 (A) (A) (A) (A) (A) (A) (A) (A) (A)
 Harris functional with IExCor=  205 diagonalized for initial guess.
 ExpMin= 3.61D-02 ExpMax= 9.99D+03 ExpMxC= 1.51D+03 IAcc=3 IRadAn=         0 AccDes= 0.00D+00
 HarFok:  IExCor=  205 AccDes= 0.00D+00 IRadAn=         0 IDoV= 1
 ScaDFX=  1.000000  1.000000  1.000000  1.000000
 Defaulting to unpruned grid for atomic number  50.
 Defaulting to unpruned grid for atomic number  50.
 Defaulting to unpruned grid for atomic number  50.
 Defaulting to unpruned grid for atomic number  50.
 Defaulting to unpruned grid for atomic number  50.
 Defaulting to unpruned grid for atomic number  50.
 Defaulting to unpruned grid for atomic number  50.
 Defaulting to unpruned grid for atomic number  50.
 Defaulting to unpruned grid for atomic number  50.
 Defaulting to unpruned grid for atomic number  50.
 Defaulting to unpruned grid for atomic number  50.
 Defaulting to unpruned grid for atomic number  50.
 Defaulting to unpruned grid for atomic number  50.
 Defaulting to unpruned grid for atomic number  50.
 Defaulting to unpruned grid for atomic number  50.
 Defaulting to unpruned grid for atomic number  50.
 Defaulting to unpruned grid for atomic number  50.
 Defaulting to unpruned grid for atomic number  50.
 Defaulting to unpruned grid for atomic number  50.
 Defaulting to unpruned grid for atomic number  50.
 FoFCou: FMM=F IPFlag=           0 FMFlag=      100000 FMFlg1=           0
         NFxFlg=           0 DoJE=T BraDBF=F KetDBF=T FulRan=T
         Omega=  0.000000  0.000000  1.000000  0.000000  0.000000 ICntrl=     500 IOpCl=  0
         NMat0=    1 NMatS0=    1 NMatT0=    0 NMatD0=    1 NMtDS0=    0 NMtDT0=    0
         I1Cent=           4 NGrid=           0.
 Petite list used in FoFCou.
 Requested convergence on RMS density matrix=1.00D-08 within 128 cycles.
 Requested convergence on MAX density matrix=1.00D-06.
 Requested convergence on             energy=1.00D-06.
 No special actions if energy rises.
 Keep R1 ints in memory in canonical form, NReq=3134234.
 SCF Done:  E(RHF) =  -196.999763406     A.U. after   13 cycles
             Convg  =    0.3981D-08             -V/T =  2.0718
 ExpMin= 3.61D-02 ExpMax= 9.99D+03 ExpMxC= 1.51D+03 IAcc=3 IRadAn=         5 AccDes= 0.00D+00
 HarFok:  IExCor=  205 AccDes= 0.00D+00 IRadAn=         5 IDoV=-2
 ScaDFX=  1.000000  1.000000  1.000000  1.000000
 Defaulting to unpruned grid for atomic number  50.
 Defaulting to unpruned grid for atomic number  50.
 Defaulting to unpruned grid for atomic number  50.
 Defaulting to unpruned grid for atomic number  50.
 Defaulting to unpruned grid for atomic number  50.
 Defaulting to unpruned grid for atomic number  50.
 Defaulting to unpruned grid for atomic number  50.
 Defaulting to unpruned grid for atomic number  50.
 Defaulting to unpruned grid for atomic number  50.
 Defaulting to unpruned grid for atomic number  50.
 Defaulting to unpruned grid for atomic number  50.
 Defaulting to unpruned grid for atomic number  50.
 Defaulting to unpruned grid for atomic number  50.
 Defaulting to unpruned grid for atomic number  50.
 Defaulting to unpruned grid for atomic number  50.
 Defaulting to unpruned grid for atomic number  50.
 Defaulting to unpruned grid for atomic number  50.
 Defaulting to unpruned grid for atomic number  50.
 Defaulting to unpruned grid for atomic number  50.
 Defaulting to unpruned grid for atomic number  50.
 Range of M.O.s used for correlation:     4    65
 NBasis=    65 NAE=    20 NBE=    20 NFC=     3 NFV=     0
 NROrb=     62 NOA=    17 NOB=    17 NVA=    45 NVB=    45
 Fully direct method using O(ONN) memory.
 JobTyp=1 Pass  1:  I=   4 to  20 NPSUse= 20 ParTrn=T ParDer=T DoDerP=T.
 Spin components of T(2) and E(2):
     alpha-alpha T2 =       0.2154951880D-01 E2=     -0.4663392367D-01
     alpha-beta  T2 =       0.1645144913D+00 E2=     -0.3189378579D+00
     beta-beta   T2 =       0.2154951880D-01 E2=     -0.4663392367D-01
 ANorm=    0.1098914705D+01
 E2 =    -0.4122057053D+00 EUMP2 =    -0.19741196911084D+03
          IDoAtm=1111111111
          Differentiating once with respect to electric field.
                with respect to dipole field.
          Differentiating once with respect to nuclear coordinates.
          Keep R1 ints in memory in canonical form, NReq=3102463.
          There are     1 degrees of freedom in the 1st order CPHF.  IDoFFX=0.
 LinEq1:  Iter=  0 NonCon=     1 RMS=9.02D-03 Max=9.64D-02
 AX will form     1 AO Fock derivatives at one time.
 LinEq1:  Iter=  1 NonCon=     1 RMS=3.67D-03 Max=3.41D-02
 LinEq1:  Iter=  2 NonCon=     1 RMS=1.14D-03 Max=1.28D-02
 LinEq1:  Iter=  3 NonCon=     1 RMS=2.61D-04 Max=2.26D-03
 LinEq1:  Iter=  4 NonCon=     1 RMS=8.82D-05 Max=7.02D-04
 LinEq1:  Iter=  5 NonCon=     1 RMS=2.82D-05 Max=2.10D-04
 LinEq1:  Iter=  6 NonCon=     1 RMS=8.82D-06 Max=9.66D-05
 LinEq1:  Iter=  7 NonCon=     1 RMS=3.83D-06 Max=4.28D-05
 LinEq1:  Iter=  8 NonCon=     1 RMS=9.87D-07 Max=1.01D-05
 LinEq1:  Iter=  9 NonCon=     1 RMS=2.83D-07 Max=5.15D-06
 LinEq1:  Iter= 10 NonCon=     1 RMS=6.80D-08 Max=6.81D-07
 LinEq1:  Iter= 11 NonCon=     1 RMS=1.35D-08 Max=8.73D-08
 LinEq1:  Iter= 12 NonCon=     1 RMS=2.12D-09 Max=1.39D-08
 LinEq1:  Iter= 13 NonCon=     1 RMS=3.85D-10 Max=2.95D-09
 LinEq1:  Iter= 14 NonCon=     0 RMS=5.82D-11 Max=3.74D-10
 Linear equations converged to 1.000D-10 1.000D-09 after    14 iterations.
 End of Minotr Frequency-dependent properties file   721 does not exist.
 End of Minotr Frequency-dependent properties file   722 does not exist.
   1 Symmetry operations used in ECPInt.
 ECPInt:  NShTT=     780 NPrTT=    3579 LenC2=     772 LenP2D=    2864.
 LDataN:  DoStor=T MaxTD1= 6 Len=  172
 Calling FoFJK, ICntrl=      2127 FMM=F ISym2X=0 I1Cent= 0 IOpClX= 0 NMat=1 NMatS=1 NMatT=0.
 ***** Axes restored to original set *****
 -------------------------------------------------------------------
 Center     Atomic                   Forces (Hartrees/Bohr)
 Number     Number              X              Y              Z
 -------------------------------------------------------------------
      1        6           0.003528453   -0.001349528    0.000623806
      2        6          -0.008145721    0.005539729   -0.002225759
      3        1           0.000223837   -0.000357713    0.000595951
      4        1           0.000157685    0.000842523   -0.000159014
      5        1           0.000249980    0.000946670   -0.000079071
      6       50           0.000624201   -0.000580186   -0.001758660
      7       50          -0.000383596   -0.000646690    0.000900907
      8        9           0.006102748   -0.003026958    0.001499413
      9       35          -0.001655236   -0.001036911    0.000329226
     10        1          -0.000702351   -0.000330936    0.000273201
 -------------------------------------------------------------------
 Cartesian Forces:  Max     0.008145721 RMS     0.002431495

 GradGradGradGradGradGradGradGradGradGradGradGradGradGradGradGradGradGrad
 Berny optimization.
 Using GEDIIS/GDIIS optimizer.
 Internal  Forces:  Max     0.006703131 RMS     0.001609817
 Search for a local minimum.
 Step number   2 out of a maximum of   43
 All quantities printed in internal units (Hartrees-Bohrs-Radians)
 Mixed Optimization -- RFO/linear search
 Update second derivatives using D2CorX and points    1    2
 DE= -4.63D-03 DEPred=-4.83D-03 R= 9.60D-01
 SS=  1.41D+00  RLast= 1.83D-01 DXNew= 5.0454D-01 5.4779D-01
 Trust test= 9.60D-01 RLast= 1.83D-01 DXMaxT set to 5.05D-01
 Use linear search instead of GDIIS.
     Eigenvalues ---    0.00230   0.00230   0.01724   0.03067   0.03068
     Eigenvalues ---    0.03879   0.04505   0.06712   0.11380   0.11499
     Eigenvalues ---    0.12024   0.12103   0.12312   0.15747   0.16000
     Eigenvalues ---    0.16000   0.17555   0.22041   0.23651   0.24941
     Eigenvalues ---    0.25455   0.37398   0.42217   0.642501000.00000
     Eigenvalues --- 1000.000001000.000001000.000001000.000001000.00000
     Eigenvalues --- 1000.000001000.000001000.00000
 RFO step:  Lambda=-3.37323880D-04 EMin= 2.29963932D-03
 Quartic linear search produced a step of  0.02592.
 Iteration  1 RMS(Cart)=  0.03144767 RMS(Int)=  0.00031464
 Iteration  2 RMS(Cart)=  0.00050435 RMS(Int)=  0.00002428
 Iteration  3 RMS(Cart)=  0.00000008 RMS(Int)=  0.00002428
 Variable       Old X    -DE/DX   Delta X   Delta X   Delta X     New X
                                 (Linear)    (Quad)   (Total)
    R1        2.58354  -0.00256   0.00201  -0.00368  -0.00166   2.58188
    R2        3.71225  -0.00193   0.00177  -0.01094  -0.00917   3.70308
    R3        2.06124   0.00017   0.00111   0.00086   0.00197   2.06321
    R4        4.16773  -0.00095   0.00094  -0.00810  -0.00716   4.16057
    R5        2.71101   0.00670   0.00191   0.01547   0.01738   2.72839
    R6        3.30393  -0.00065   0.00091  -0.00511  -0.00420   3.29973
    R7        3.29857  -0.00048   0.00084  -0.00371  -0.00286   3.29570
    R8        3.28988  -0.00056   0.00084  -0.00435  -0.00351   3.28637
    R9        5.23232  -0.00131  -0.00217  -0.02087  -0.02303   5.20928
    A1        2.18545  -0.00059   0.00023  -0.00267  -0.00244   2.18301
    A2        2.12014  -0.00052  -0.00029  -0.00393  -0.00422   2.11591
    A3        1.97755   0.00111   0.00006   0.00662   0.00668   1.98423
    A4        2.21257   0.00162  -0.00040   0.00648   0.00608   2.21865
    A5        2.08569  -0.00343   0.00037  -0.01391  -0.01354   2.07216
    A6        1.98445   0.00181   0.00003   0.00742   0.00745   1.99191
    A7        1.72656  -0.00014   0.00064   0.00584   0.00639   1.73295
    A8        1.92812   0.00096   0.00013   0.00638   0.00647   1.93459
    A9        1.99177   0.00031   0.00005   0.00852   0.00850   2.00027
   A10        1.79489   0.00149   0.00047   0.01147   0.01193   1.80683
   A11        1.95977  -0.00104  -0.00022  -0.00577  -0.00599   1.95378
   A12        2.00053  -0.00141  -0.00037  -0.00827  -0.00865   1.99188
    D1        3.10542   0.00009   0.00026   0.00234   0.00260   3.10802
    D2       -0.00113   0.00006   0.00004   0.00274   0.00278   0.00165
    D3       -0.04649   0.00015   0.00016   0.00413   0.00429  -0.04220
    D4        3.13014   0.00011  -0.00005   0.00452   0.00447   3.13461
    D5        0.14230  -0.00022  -0.00018   0.02557   0.02538   0.16768
    D6        2.23691   0.00044   0.00026   0.04086   0.04114   2.27804
    D7       -3.03259  -0.00027   0.00004   0.02483   0.02484  -3.00775
    D8       -0.93799   0.00038   0.00047   0.04012   0.04060  -0.89739
    D9        3.11856  -0.00017  -0.00034   0.00055   0.00019   3.11875
   D10        1.07873  -0.00039  -0.00054  -0.00447  -0.00504   1.07369
   D11       -1.23775   0.00042   0.00055   0.01650   0.01707  -1.22067
   D12        3.00561   0.00020   0.00035   0.01148   0.01185   3.01746
         Item               Value     Threshold  Converged?
 Maximum Force            0.006703     0.000450     NO 
 RMS     Force            0.001610     0.000300     NO 
 Maximum Displacement     0.096961     0.001800     NO 
 RMS     Displacement     0.031389     0.001200     NO 
 Predicted change in Energy=-1.704312D-04
 GradGradGradGradGradGradGradGradGradGradGradGradGradGradGradGradGradGrad

                          Input orientation:                          
 ---------------------------------------------------------------------
 Center     Atomic      Atomic             Coordinates (Angstroms)
 Number     Number       Type             X           Y           Z
 ---------------------------------------------------------------------
      1          6           0        2.267108    2.924773   -0.208790
      2          6           0        1.895555    1.696578    0.260453
      3          1           0       -1.038262    2.237689   -0.227080
      4          1           0       -2.081096   -2.164328   -0.336407
      5          1           0        0.555921   -2.762210    0.079673
      6         50           0       -0.155128    0.953438    0.560188
      7         50           0       -0.475516   -1.531825   -0.588659
      8          9           0        2.924806    0.763375    0.653314
      9         35           0        4.116112    3.544229   -0.402279
     10          1           0        1.523195    3.659449   -0.523241
 ---------------------------------------------------------------------
                    Distance matrix (angstroms):
                    1          2          3          4          5
     1  C    0.000000
     2  C    1.366274   0.000000
     3  H    3.376076   3.022875   0.000000
     4  H    6.694932   5.574638   4.525175   0.000000
     5  H    5.945851   4.659194   5.256853   2.735772   0.000000
     6  Sn   3.216320   2.201681   1.746144   3.772758   3.813466
     7  Sn   5.246671   4.094577   3.828402   1.744012   1.739074
     8  F    2.418146   1.443802   4.319097   5.883031   4.286074
     9  Br   1.959587   2.963765   5.320274   8.425992   7.257989
    10  H    1.091804   2.146088   2.944516   6.851438   6.522027
                    6          7          8          9         10
     6  Sn   0.000000
     7  Sn   2.756634   0.000000
     8  F    3.087197   4.286331   0.000000
     9  Br   5.087438   6.847198   3.204158   0.000000
    10  H    3.363493   5.563134   3.425790   2.598293   0.000000
 Stoichiometry    C2H4BrFSn2
 Framework group  C1[X(C2H4BrFSn2)]
 Deg. of freedom    24
 Full point group                 C1      NOp   1
 Largest Abelian subgroup         C1      NOp   1
 Largest concise Abelian subgroup C1      NOp   1
                         Standard orientation:                         
 ---------------------------------------------------------------------
 Center     Atomic      Atomic             Coordinates (Angstroms)
 Number     Number       Type             X           Y           Z
 ---------------------------------------------------------------------
      1          6           0        2.379974    0.441287   -0.408373
      2          6           0        1.245557    0.130320    0.286682
      3          1           0       -0.420825    2.123956   -1.258102
      4          1           0       -4.299828    0.012790   -0.271427
      5          1           0       -2.881995   -1.858333    1.133242
      6         50           0       -0.716214    1.118743    0.138792
      7         50           0       -2.727760   -0.737645   -0.187609
      8          9           0        1.300134   -0.929517    1.265625
      9         35           0        4.113246   -0.446517   -0.190310
     10          1           0        2.383334    1.230804   -1.162487
 ---------------------------------------------------------------------
 Rotational constants (GHZ):      1.6681228      0.2046016      0.1885622
 Standard basis: SDD (6D, 10F)
 There are    65 symmetry adapted basis functions of A   symmetry.
 Integral buffers will be    131072 words long.
 Raffenetti 1 integral format.
 Two-electron integral symmetry is turned on.
    65 basis functions,   139 primitive gaussians,    65 cartesian basis functions
    20 alpha electrons       20 beta electrons
       nuclear repulsion energy       131.9946437372 Hartrees.
 NAtoms=   10 NActive=   10 NUniq=   10 SFac= 7.50D-01 NAtFMM=   80 NAOKFM=F Big=F
 One-electron integrals computed using PRISM.
   1 Symmetry operations used in ECPInt.
 ECPInt:  NShTT=     780 NPrTT=    3579 LenC2=     772 LenP2D=    2864.
 LDataN:  DoStor=T MaxTD1= 5 Len=  102
 NBasis=    65 RedAO= T  NBF=    65
 NBsUse=    65 1.00D-06 NBFU=    65
 Initial guess read from the read-write file.
 B after Tr=     0.000000    0.000000    0.000000
         Rot=    1.000000    0.000000    0.000000    0.000000 Ang=   0.00 deg.
 Initial guess orbital symmetries:
       Occupied  (A) (A) (A) (A) (A) (A) (A) (A) (A) (A) (A) (A)
                 (A) (A) (A) (A) (A) (A) (A) (A)
       Virtual   (A) (A) (A) (A) (A) (A) (A) (A) (A) (A) (A) (A)
                 (A) (A) (A) (A) (A) (A) (A) (A) (A) (A) (A) (A)
                 (A) (A) (A) (A) (A) (A) (A) (A) (A) (A) (A) (A)
                 (A) (A) (A) (A) (A) (A) (A) (A) (A)
 Harris functional with IExCor=  205 diagonalized for initial guess.
 ExpMin= 3.61D-02 ExpMax= 9.99D+03 ExpMxC= 1.51D+03 IAcc=3 IRadAn=         0 AccDes= 0.00D+00
 HarFok:  IExCor=  205 AccDes= 0.00D+00 IRadAn=         0 IDoV= 1
 ScaDFX=  1.000000  1.000000  1.000000  1.000000
 Defaulting to unpruned grid for atomic number  50.
 Defaulting to unpruned grid for atomic number  50.
 Defaulting to unpruned grid for atomic number  50.
 Defaulting to unpruned grid for atomic number  50.
 Defaulting to unpruned grid for atomic number  50.
 Defaulting to unpruned grid for atomic number  50.
 Defaulting to unpruned grid for atomic number  50.
 Defaulting to unpruned grid for atomic number  50.
 Defaulting to unpruned grid for atomic number  50.
 Defaulting to unpruned grid for atomic number  50.
 Defaulting to unpruned grid for atomic number  50.
 Defaulting to unpruned grid for atomic number  50.
 Defaulting to unpruned grid for atomic number  50.
 Defaulting to unpruned grid for atomic number  50.
 Defaulting to unpruned grid for atomic number  50.
 Defaulting to unpruned grid for atomic number  50.
 Defaulting to unpruned grid for atomic number  50.
 Defaulting to unpruned grid for atomic number  50.
 Defaulting to unpruned grid for atomic number  50.
 Defaulting to unpruned grid for atomic number  50.
 FoFCou: FMM=F IPFlag=           0 FMFlag=      100000 FMFlg1=           0
         NFxFlg=           0 DoJE=T BraDBF=F KetDBF=T FulRan=T
         Omega=  0.000000  0.000000  1.000000  0.000000  0.000000 ICntrl=     500 IOpCl=  0
         NMat0=    1 NMatS0=    1 NMatT0=    0 NMatD0=    1 NMtDS0=    0 NMtDT0=    0
         I1Cent=           4 NGrid=           0.
 Petite list used in FoFCou.
 Requested convergence on RMS density matrix=1.00D-08 within 128 cycles.
 Requested convergence on MAX density matrix=1.00D-06.
 Requested convergence on             energy=1.00D-06.
 No special actions if energy rises.
 Keep R1 ints in memory in canonical form, NReq=3134234.
 SCF Done:  E(RHF) =  -196.999464789     A.U. after   12 cycles
             Convg  =    0.9585D-08             -V/T =  2.0718
 ExpMin= 3.61D-02 ExpMax= 9.99D+03 ExpMxC= 1.51D+03 IAcc=3 IRadAn=         5 AccDes= 0.00D+00
 HarFok:  IExCor=  205 AccDes= 0.00D+00 IRadAn=         5 IDoV=-2
 ScaDFX=  1.000000  1.000000  1.000000  1.000000
 Defaulting to unpruned grid for atomic number  50.
 Defaulting to unpruned grid for atomic number  50.
 Defaulting to unpruned grid for atomic number  50.
 Defaulting to unpruned grid for atomic number  50.
 Defaulting to unpruned grid for atomic number  50.
 Defaulting to unpruned grid for atomic number  50.
 Defaulting to unpruned grid for atomic number  50.
 Defaulting to unpruned grid for atomic number  50.
 Defaulting to unpruned grid for atomic number  50.
 Defaulting to unpruned grid for atomic number  50.
 Defaulting to unpruned grid for atomic number  50.
 Defaulting to unpruned grid for atomic number  50.
 Defaulting to unpruned grid for atomic number  50.
 Defaulting to unpruned grid for atomic number  50.
 Defaulting to unpruned grid for atomic number  50.
 Defaulting to unpruned grid for atomic number  50.
 Defaulting to unpruned grid for atomic number  50.
 Defaulting to unpruned grid for atomic number  50.
 Defaulting to unpruned grid for atomic number  50.
 Defaulting to unpruned grid for atomic number  50.
 Range of M.O.s used for correlation:     4    65
 NBasis=    65 NAE=    20 NBE=    20 NFC=     3 NFV=     0
 NROrb=     62 NOA=    17 NOB=    17 NVA=    45 NVB=    45
 Fully direct method using O(ONN) memory.
 JobTyp=1 Pass  1:  I=   4 to  20 NPSUse= 20 ParTrn=T ParDer=T DoDerP=T.
 Spin components of T(2) and E(2):
     alpha-alpha T2 =       0.2158729131D-01 E2=     -0.4670553464D-01
     alpha-beta  T2 =       0.1648503766D+00 E2=     -0.3193272336D+00
     beta-beta   T2 =       0.2158729131D-01 E2=     -0.4670553464D-01
 ANorm=    0.1099101888D+01
 E2 =    -0.4127383029D+00 EUMP2 =    -0.19741220309186D+03
          IDoAtm=1111111111
          Differentiating once with respect to electric field.
                with respect to dipole field.
          Differentiating once with respect to nuclear coordinates.
          Keep R1 ints in memory in canonical form, NReq=3102463.
          There are     1 degrees of freedom in the 1st order CPHF.  IDoFFX=0.
 LinEq1:  Iter=  0 NonCon=     1 RMS=9.01D-03 Max=9.56D-02
 AX will form     1 AO Fock derivatives at one time.
 LinEq1:  Iter=  1 NonCon=     1 RMS=3.68D-03 Max=3.43D-02
 LinEq1:  Iter=  2 NonCon=     1 RMS=1.14D-03 Max=1.31D-02
 LinEq1:  Iter=  3 NonCon=     1 RMS=2.59D-04 Max=2.31D-03
 LinEq1:  Iter=  4 NonCon=     1 RMS=8.51D-05 Max=6.56D-04
 LinEq1:  Iter=  5 NonCon=     1 RMS=2.63D-05 Max=1.88D-04
 LinEq1:  Iter=  6 NonCon=     1 RMS=8.10D-06 Max=8.99D-05
 LinEq1:  Iter=  7 NonCon=     1 RMS=3.55D-06 Max=3.38D-05
 LinEq1:  Iter=  8 NonCon=     1 RMS=9.48D-07 Max=9.30D-06
 LinEq1:  Iter=  9 NonCon=     1 RMS=2.84D-07 Max=5.32D-06
 LinEq1:  Iter= 10 NonCon=     1 RMS=6.77D-08 Max=6.60D-07
 LinEq1:  Iter= 11 NonCon=     1 RMS=1.36D-08 Max=9.33D-08
 LinEq1:  Iter= 12 NonCon=     1 RMS=2.16D-09 Max=1.38D-08
 LinEq1:  Iter= 13 NonCon=     1 RMS=3.94D-10 Max=3.08D-09
 LinEq1:  Iter= 14 NonCon=     0 RMS=5.95D-11 Max=3.61D-10
 Linear equations converged to 1.000D-10 1.000D-09 after    14 iterations.
 End of Minotr Frequency-dependent properties file   721 does not exist.
 End of Minotr Frequency-dependent properties file   722 does not exist.
   1 Symmetry operations used in ECPInt.
 ECPInt:  NShTT=     780 NPrTT=    3579 LenC2=     772 LenP2D=    2864.
 LDataN:  DoStor=T MaxTD1= 6 Len=  172
 Calling FoFJK, ICntrl=      2127 FMM=F ISym2X=0 I1Cent= 0 IOpClX= 0 NMat=1 NMatS=1 NMatT=0.
 ***** Axes restored to original set *****
 -------------------------------------------------------------------
 Center     Atomic                   Forces (Hartrees/Bohr)
 Number     Number              X              Y              Z
 -------------------------------------------------------------------
      1        6           0.001524366   -0.000393823    0.000167606
      2        6          -0.003529117    0.002588788   -0.000697646
      3        1           0.000299856   -0.000015323    0.000451917
      4        1           0.000115454    0.000496474   -0.000048919
      5        1           0.000138736    0.000544775   -0.000051748
      6       50           0.000598419   -0.000378841   -0.000846643
      7       50          -0.000313715   -0.000932101    0.000306633
      8        9           0.001865988   -0.001185811    0.000471112
      9       35          -0.000787870   -0.000276509    0.000105875
     10        1           0.000087882   -0.000447628    0.000141813
 -------------------------------------------------------------------
 Cartesian Forces:  Max     0.003529117 RMS     0.001022280

 GradGradGradGradGradGradGradGradGradGradGradGradGradGradGradGradGradGrad
 Berny optimization.
 Using GEDIIS/GDIIS optimizer.
 Internal  Forces:  Max     0.002224857 RMS     0.000662736
 Search for a local minimum.
 Step number   3 out of a maximum of   43
 All quantities printed in internal units (Hartrees-Bohrs-Radians)
 Mixed Optimization -- En-DIIS/RFO-DIIS
 Update second derivatives using D2CorX and points    1    2    3
 DE= -2.34D-04 DEPred=-1.70D-04 R= 1.37D+00
 SS=  1.41D+00  RLast= 8.29D-02 DXNew= 8.4853D-01 2.4879D-01
 Trust test= 1.37D+00 RLast= 8.29D-02 DXMaxT set to 5.05D-01
 Use linear search instead of GDIIS.
     Eigenvalues ---    0.00229   0.00239   0.01709   0.03068   0.03082
     Eigenvalues ---    0.03227   0.04561   0.06582   0.10872   0.11505
     Eigenvalues ---    0.12006   0.12062   0.12181   0.13817   0.16000
     Eigenvalues ---    0.16047   0.17243   0.22099   0.22354   0.24245
     Eigenvalues ---    0.26291   0.37844   0.40367   0.634441000.00000
     Eigenvalues --- 1000.000001000.000001000.000001000.000001000.00000
     Eigenvalues --- 1000.000001000.000001000.00000
 RFO step:  Lambda=-5.38977228D-05 EMin= 2.28950600D-03
 Quartic linear search produced a step of  0.59988.
 Iteration  1 RMS(Cart)=  0.01804791 RMS(Int)=  0.00018418
 Iteration  2 RMS(Cart)=  0.00024766 RMS(Int)=  0.00005655
 Iteration  3 RMS(Cart)=  0.00000002 RMS(Int)=  0.00005655
 Variable       Old X    -DE/DX   Delta X   Delta X   Delta X     New X
                                 (Linear)    (Quad)   (Total)
    R1        2.58188  -0.00092  -0.00100   0.00027  -0.00072   2.58116
    R2        3.70308  -0.00084  -0.00550  -0.00201  -0.00751   3.69557
    R3        2.06321  -0.00040   0.00118  -0.00147  -0.00029   2.06292
    R4        4.16057  -0.00071  -0.00429  -0.00570  -0.01000   4.15058
    R5        2.72839   0.00222   0.01043   0.00187   0.01229   2.74068
    R6        3.29973  -0.00037  -0.00252  -0.00202  -0.00454   3.29520
    R7        3.29570  -0.00029  -0.00172  -0.00170  -0.00341   3.29229
    R8        3.28637  -0.00032  -0.00210  -0.00176  -0.00386   3.28251
    R9        5.20928  -0.00018  -0.01382   0.00344  -0.01037   5.19891
    A1        2.18301   0.00013  -0.00147   0.00224   0.00077   2.18378
    A2        2.11591  -0.00033  -0.00253  -0.00152  -0.00406   2.11186
    A3        1.98423   0.00020   0.00401  -0.00072   0.00329   1.98752
    A4        2.21865   0.00126   0.00365   0.00492   0.00857   2.22721
    A5        2.07216  -0.00117  -0.00812  -0.00108  -0.00921   2.06295
    A6        1.99191  -0.00009   0.00447  -0.00376   0.00071   1.99262
    A7        1.73295  -0.00051   0.00383  -0.00075   0.00287   1.73583
    A8        1.93459   0.00096   0.00388   0.00604   0.00980   1.94439
    A9        2.00027   0.00047   0.00510   0.00964   0.01461   2.01488
   A10        1.80683   0.00086   0.00716   0.00442   0.01156   1.81838
   A11        1.95378  -0.00070  -0.00360  -0.00420  -0.00781   1.94596
   A12        1.99188  -0.00082  -0.00519  -0.00436  -0.00956   1.98232
    D1        3.10802  -0.00001   0.00156  -0.00080   0.00075   3.10878
    D2        0.00165  -0.00004   0.00167  -0.00376  -0.00209  -0.00045
    D3       -0.04220  -0.00001   0.00257  -0.00198   0.00059  -0.04161
    D4        3.13461  -0.00005   0.00268  -0.00494  -0.00226   3.13235
    D5        0.16768  -0.00035   0.01522  -0.02553  -0.01033   0.15735
    D6        2.27804   0.00032   0.02468  -0.01232   0.01237   2.29041
    D7       -3.00775  -0.00033   0.01490  -0.02265  -0.00776  -3.01551
    D8       -0.89739   0.00034   0.02436  -0.00944   0.01494  -0.88245
    D9        3.11875  -0.00013   0.00011  -0.02153  -0.02148   3.09726
   D10        1.07369  -0.00018  -0.00302  -0.02127  -0.02438   1.04931
   D11       -1.22067   0.00014   0.01024  -0.01292  -0.00259  -1.22326
   D12        3.01746   0.00008   0.00711  -0.01266  -0.00549   3.01197
         Item               Value     Threshold  Converged?
 Maximum Force            0.002225     0.000450     NO 
 RMS     Force            0.000663     0.000300     NO 
 Maximum Displacement     0.054355     0.001800     NO 
 RMS     Displacement     0.018012     0.001200     NO 
 Predicted change in Energy=-6.552245D-05
 GradGradGradGradGradGradGradGradGradGradGradGradGradGradGradGradGradGrad

                          Input orientation:                          
 ---------------------------------------------------------------------
 Center     Atomic      Atomic             Coordinates (Angstroms)
 Number     Number       Type             X           Y           Z
 ---------------------------------------------------------------------
      1          6           0        2.269557    2.926013   -0.205895
      2          6           0        1.887464    1.697338    0.252385
      3          1           0       -1.044274    2.240631   -0.230221
      4          1           0       -2.082960   -2.165326   -0.307644
      5          1           0        0.572542   -2.747146    0.073944
      6         50           0       -0.157978    0.949078    0.535945
      7         50           0       -0.482456   -1.538864   -0.592620
      8          9           0        2.922357    0.759398    0.643093
      9         35           0        4.119281    3.536017   -0.381509
     10          1           0        1.529163    3.664028   -0.520308
 ---------------------------------------------------------------------
                    Distance matrix (angstroms):
                    1          2          3          4          5
     1  C    0.000000
     2  C    1.365891   0.000000
     3  H    3.384053   3.020458   0.000000
     4  H    6.698992   5.567591   4.527397   0.000000
     5  H    5.928145   4.638351   5.252098   2.745143   0.000000
     6  Sn   3.217378   2.196391   1.743743   3.757221   3.795942
     7  Sn   5.259112   4.099214   3.838171   1.742205   1.737030
     8  F    2.416847   1.450306   4.323296   5.874616   4.259274
     9  Br   1.955613   2.960332   5.325712   8.424877   7.229449
    10  H    1.091652   2.143199   2.955129   6.861051   6.509333
                    6          7          8          9         10
     6  Sn   0.000000
     7  Sn   2.751145   0.000000
     8  F    3.088029   4.289726   0.000000
     9  Br   5.082216   6.853828   3.192499   0.000000
    10  H    3.366462   5.578703   3.425108   2.596991   0.000000
 Stoichiometry    C2H4BrFSn2
 Framework group  C1[X(C2H4BrFSn2)]
 Deg. of freedom    24
 Full point group                 C1      NOp   1
 Largest Abelian subgroup         C1      NOp   1
 Largest concise Abelian subgroup C1      NOp   1
                         Standard orientation:                         
 ---------------------------------------------------------------------
 Center     Atomic      Atomic             Coordinates (Angstroms)
 Number     Number       Type             X           Y           Z
 ---------------------------------------------------------------------
      1          6           0        2.387155    0.449779   -0.404229
      2          6           0        1.247351    0.130388    0.277308
      3          1           0       -0.420018    2.152676   -1.223823
      4          1           0       -4.296788    0.038447   -0.224822
      5          1           0       -2.851345   -1.873685    1.113182
      6         50           0       -0.714149    1.109343    0.142040
      7         50           0       -2.733460   -0.729647   -0.188568
      8          9           0        1.305256   -0.952812    1.239968
      9         35           0        4.114317   -0.441691   -0.188312
     10          1           0        2.393181    1.251262   -1.145371
 ---------------------------------------------------------------------
 Rotational constants (GHZ):      1.6930638      0.2043418      0.1884542
 Standard basis: SDD (6D, 10F)
 There are    65 symmetry adapted basis functions of A   symmetry.
 Integral buffers will be    131072 words long.
 Raffenetti 1 integral format.
 Two-electron integral symmetry is turned on.
    65 basis functions,   139 primitive gaussians,    65 cartesian basis functions
    20 alpha electrons       20 beta electrons
       nuclear repulsion energy       132.0116262439 Hartrees.
 NAtoms=   10 NActive=   10 NUniq=   10 SFac= 7.50D-01 NAtFMM=   80 NAOKFM=F Big=F
 One-electron integrals computed using PRISM.
   1 Symmetry operations used in ECPInt.
 ECPInt:  NShTT=     780 NPrTT=    3579 LenC2=     772 LenP2D=    2865.
 LDataN:  DoStor=T MaxTD1= 5 Len=  102
 NBasis=    65 RedAO= T  NBF=    65
 NBsUse=    65 1.00D-06 NBFU=    65
 Initial guess read from the read-write file.
 B after Tr=     0.000000    0.000000    0.000000
         Rot=    1.000000    0.000000    0.000000    0.000000 Ang=   0.00 deg.
 Initial guess orbital symmetries:
       Occupied  (A) (A) (A) (A) (A) (A) (A) (A) (A) (A) (A) (A)
                 (A) (A) (A) (A) (A) (A) (A) (A)
       Virtual   (A) (A) (A) (A) (A) (A) (A) (A) (A) (A) (A) (A)
                 (A) (A) (A) (A) (A) (A) (A) (A) (A) (A) (A) (A)
                 (A) (A) (A) (A) (A) (A) (A) (A) (A) (A) (A) (A)
                 (A) (A) (A) (A) (A) (A) (A) (A) (A)
 Harris functional with IExCor=  205 diagonalized for initial guess.
 ExpMin= 3.61D-02 ExpMax= 9.99D+03 ExpMxC= 1.51D+03 IAcc=3 IRadAn=         0 AccDes= 0.00D+00
 HarFok:  IExCor=  205 AccDes= 0.00D+00 IRadAn=         0 IDoV= 1
 ScaDFX=  1.000000  1.000000  1.000000  1.000000
 Defaulting to unpruned grid for atomic number  50.
 Defaulting to unpruned grid for atomic number  50.
 Defaulting to unpruned grid for atomic number  50.
 Defaulting to unpruned grid for atomic number  50.
 Defaulting to unpruned grid for atomic number  50.
 Defaulting to unpruned grid for atomic number  50.
 Defaulting to unpruned grid for atomic number  50.
 Defaulting to unpruned grid for atomic number  50.
 Defaulting to unpruned grid for atomic number  50.
 Defaulting to unpruned grid for atomic number  50.
 Defaulting to unpruned grid for atomic number  50.
 Defaulting to unpruned grid for atomic number  50.
 Defaulting to unpruned grid for atomic number  50.
 Defaulting to unpruned grid for atomic number  50.
 Defaulting to unpruned grid for atomic number  50.
 Defaulting to unpruned grid for atomic number  50.
 Defaulting to unpruned grid for atomic number  50.
 Defaulting to unpruned grid for atomic number  50.
 Defaulting to unpruned grid for atomic number  50.
 Defaulting to unpruned grid for atomic number  50.
 FoFCou: FMM=F IPFlag=           0 FMFlag=      100000 FMFlg1=           0
         NFxFlg=           0 DoJE=T BraDBF=F KetDBF=T FulRan=T
         Omega=  0.000000  0.000000  1.000000  0.000000  0.000000 ICntrl=     500 IOpCl=  0
         NMat0=    1 NMatS0=    1 NMatT0=    0 NMatD0=    1 NMtDS0=    0 NMtDT0=    0
         I1Cent=           4 NGrid=           0.
 Petite list used in FoFCou.
 Requested convergence on RMS density matrix=1.00D-08 within 128 cycles.
 Requested convergence on MAX density matrix=1.00D-06.
 Requested convergence on             energy=1.00D-06.
 No special actions if energy rises.
 Keep R1 ints in memory in canonical form, NReq=3134234.
 SCF Done:  E(RHF) =  -196.999249460     A.U. after   12 cycles
             Convg  =    0.5386D-08             -V/T =  2.0718
 ExpMin= 3.61D-02 ExpMax= 9.99D+03 ExpMxC= 1.51D+03 IAcc=3 IRadAn=         5 AccDes= 0.00D+00
 HarFok:  IExCor=  205 AccDes= 0.00D+00 IRadAn=         5 IDoV=-2
 ScaDFX=  1.000000  1.000000  1.000000  1.000000
 Defaulting to unpruned grid for atomic number  50.
 Defaulting to unpruned grid for atomic number  50.
 Defaulting to unpruned grid for atomic number  50.
 Defaulting to unpruned grid for atomic number  50.
 Defaulting to unpruned grid for atomic number  50.
 Defaulting to unpruned grid for atomic number  50.
 Defaulting to unpruned grid for atomic number  50.
 Defaulting to unpruned grid for atomic number  50.
 Defaulting to unpruned grid for atomic number  50.
 Defaulting to unpruned grid for atomic number  50.
 Defaulting to unpruned grid for atomic number  50.
 Defaulting to unpruned grid for atomic number  50.
 Defaulting to unpruned grid for atomic number  50.
 Defaulting to unpruned grid for atomic number  50.
 Defaulting to unpruned grid for atomic number  50.
 Defaulting to unpruned grid for atomic number  50.
 Defaulting to unpruned grid for atomic number  50.
 Defaulting to unpruned grid for atomic number  50.
 Defaulting to unpruned grid for atomic number  50.
 Defaulting to unpruned grid for atomic number  50.
 Range of M.O.s used for correlation:     4    65
 NBasis=    65 NAE=    20 NBE=    20 NFC=     3 NFV=     0
 NROrb=     62 NOA=    17 NOB=    17 NVA=    45 NVB=    45
 Fully direct method using O(ONN) memory.
 JobTyp=1 Pass  1:  I=   4 to  20 NPSUse= 20 ParTrn=T ParDer=T DoDerP=T.
 Spin components of T(2) and E(2):
     alpha-alpha T2 =       0.2161190128D-01 E2=     -0.4675049514D-01
     alpha-beta  T2 =       0.1650242177D+00 E2=     -0.3195255973D+00
     beta-beta   T2 =       0.2161190128D-01 E2=     -0.4675049514D-01
 ANorm=    0.1099203357D+01
 E2 =    -0.4130265875D+00 EUMP2 =    -0.19741227604796D+03
          IDoAtm=1111111111
          Differentiating once with respect to electric field.
                with respect to dipole field.
          Differentiating once with respect to nuclear coordinates.
          Keep R1 ints in memory in canonical form, NReq=3102463.
          There are     1 degrees of freedom in the 1st order CPHF.  IDoFFX=0.
 LinEq1:  Iter=  0 NonCon=     1 RMS=8.99D-03 Max=9.50D-02
 AX will form     1 AO Fock derivatives at one time.
 LinEq1:  Iter=  1 NonCon=     1 RMS=3.68D-03 Max=3.45D-02
 LinEq1:  Iter=  2 NonCon=     1 RMS=1.14D-03 Max=1.32D-02
 LinEq1:  Iter=  3 NonCon=     1 RMS=2.56D-04 Max=2.36D-03
 LinEq1:  Iter=  4 NonCon=     1 RMS=8.36D-05 Max=6.43D-04
 LinEq1:  Iter=  5 NonCon=     1 RMS=2.49D-05 Max=1.64D-04
 LinEq1:  Iter=  6 NonCon=     1 RMS=7.37D-06 Max=7.82D-05
 LinEq1:  Iter=  7 NonCon=     1 RMS=3.22D-06 Max=2.42D-05
 LinEq1:  Iter=  8 NonCon=     1 RMS=8.88D-07 Max=8.00D-06
 LinEq1:  Iter=  9 NonCon=     1 RMS=2.68D-07 Max=5.14D-06
 LinEq1:  Iter= 10 NonCon=     1 RMS=6.44D-08 Max=6.28D-07
 LinEq1:  Iter= 11 NonCon=     1 RMS=1.35D-08 Max=1.03D-07
 LinEq1:  Iter= 12 NonCon=     1 RMS=2.16D-09 Max=1.38D-08
 LinEq1:  Iter= 13 NonCon=     1 RMS=3.94D-10 Max=3.24D-09
 LinEq1:  Iter= 14 NonCon=     0 RMS=6.00D-11 Max=3.57D-10
 Linear equations converged to 1.000D-10 1.000D-09 after    14 iterations.
 End of Minotr Frequency-dependent properties file   721 does not exist.
 End of Minotr Frequency-dependent properties file   722 does not exist.
   1 Symmetry operations used in ECPInt.
 ECPInt:  NShTT=     780 NPrTT=    3579 LenC2=     772 LenP2D=    2865.
 LDataN:  DoStor=T MaxTD1= 6 Len=  172
 Calling FoFJK, ICntrl=      2127 FMM=F ISym2X=0 I1Cent= 0 IOpClX= 0 NMat=1 NMatS=1 NMatT=0.
 ***** Axes restored to original set *****
 -------------------------------------------------------------------
 Center     Atomic                   Forces (Hartrees/Bohr)
 Number     Number              X              Y              Z
 -------------------------------------------------------------------
      1        6           0.000069230   -0.000241501    0.000070617
      2        6           0.000283552    0.000635549   -0.000234306
      3        1           0.000125777    0.000170927    0.000180825
      4        1          -0.000030738    0.000129405    0.000008129
      5        1           0.000071599    0.000075173    0.000188609
      6       50           0.000088658   -0.000570193   -0.000021429
      7       50          -0.000119376   -0.000362405   -0.000209511
      8        9          -0.000659130    0.000091677   -0.000013291
      9       35           0.000016984    0.000129985   -0.000031319
     10        1           0.000153444   -0.000058616    0.000061676
 -------------------------------------------------------------------
 Cartesian Forces:  Max     0.000659130 RMS     0.000242492

 GradGradGradGradGradGradGradGradGradGradGradGradGradGradGradGradGradGrad
 Berny optimization.
 Using GEDIIS/GDIIS optimizer.
 Internal  Forces:  Max     0.000864165 RMS     0.000301901
 Search for a local minimum.
 Step number   4 out of a maximum of   43
 All quantities printed in internal units (Hartrees-Bohrs-Radians)
 Mixed Optimization -- En-DIIS/RFO-DIIS
 Swaping is turned off.
 Update second derivatives using D2CorX and points    1    2    3    4
 DE= -7.30D-05 DEPred=-6.55D-05 R= 1.11D+00
 SS=  1.41D+00  RLast= 5.38D-02 DXNew= 8.4853D-01 1.6153D-01
 Trust test= 1.11D+00 RLast= 5.38D-02 DXMaxT set to 5.05D-01
     Eigenvalues ---    0.00233   0.00245   0.01707   0.02660   0.03071
     Eigenvalues ---    0.03091   0.04709   0.06571   0.09568   0.11621
     Eigenvalues ---    0.12024   0.12086   0.12301   0.13395   0.16017
     Eigenvalues ---    0.16081   0.17385   0.21687   0.22254   0.24216
     Eigenvalues ---    0.28238   0.37552   0.43328   0.638441000.00000
     Eigenvalues --- 1000.000001000.000001000.000001000.000001000.00000
     Eigenvalues --- 1000.000001000.000001000.00000
 En-DIIS/RFO-DIIS IScMMF=        0 using points:     4    3
 RFO step:  Lambda=-7.84880518D-06.
 DIIS coeffs:      1.13346     -0.13346
 Iteration  1 RMS(Cart)=  0.02884876 RMS(Int)=  0.00041588
 Iteration  2 RMS(Cart)=  0.00044490 RMS(Int)=  0.00002127
 Iteration  3 RMS(Cart)=  0.00000007 RMS(Int)=  0.00002127
 Variable       Old X    -DE/DX   Delta X   Delta X   Delta X     New X
                                  (DIIS)     (GDIIS)  (Total)
    R1        2.58116  -0.00012  -0.00010  -0.00019  -0.00029   2.58087
    R2        3.69557   0.00006  -0.00100  -0.00097  -0.00197   3.69360
    R3        2.06292  -0.00016  -0.00004  -0.00017  -0.00021   2.06271
    R4        4.15058   0.00008  -0.00133  -0.00073  -0.00206   4.14851
    R5        2.74068  -0.00053   0.00164   0.00182   0.00346   2.74414
    R6        3.29520  -0.00002  -0.00061  -0.00086  -0.00147   3.29373
    R7        3.29229  -0.00002  -0.00046  -0.00064  -0.00110   3.29120
    R8        3.28251   0.00006  -0.00052  -0.00002  -0.00053   3.28198
    R9        5.19891   0.00016  -0.00138  -0.00099  -0.00237   5.19654
    A1        2.18378   0.00025   0.00010   0.00115   0.00125   2.18503
    A2        2.11186  -0.00006  -0.00054  -0.00103  -0.00157   2.11029
    A3        1.98752  -0.00019   0.00044  -0.00010   0.00033   1.98786
    A4        2.22721   0.00064   0.00114   0.00415   0.00529   2.23251
    A5        2.06295   0.00022  -0.00123  -0.00117  -0.00240   2.06055
    A6        1.99262  -0.00086   0.00010  -0.00305  -0.00295   1.98967
    A7        1.73583  -0.00049   0.00038  -0.00112  -0.00081   1.73502
    A8        1.94439   0.00058   0.00131   0.00483   0.00610   1.95048
    A9        2.01488   0.00035   0.00195   0.00759   0.00951   2.02439
   A10        1.81838   0.00025   0.00154   0.00235   0.00386   1.82225
   A11        1.94596  -0.00026  -0.00104  -0.00404  -0.00510   1.94087
   A12        1.98232  -0.00051  -0.00128  -0.00620  -0.00750   1.97482
    D1        3.10878  -0.00005   0.00010  -0.00216  -0.00206   3.10671
    D2       -0.00045   0.00000  -0.00028   0.00075   0.00047   0.00003
    D3       -0.04161   0.00000   0.00008  -0.00013  -0.00005  -0.04166
    D4        3.13235   0.00006  -0.00030   0.00279   0.00249   3.13484
    D5        0.15735  -0.00016  -0.00138   0.00603   0.00465   0.16201
    D6        2.29041   0.00023   0.00165   0.01636   0.01801   2.30843
    D7       -3.01551  -0.00020  -0.00104   0.00324   0.00220  -3.01330
    D8       -0.88245   0.00019   0.00199   0.01357   0.01556  -0.86689
    D9        3.09726   0.00000  -0.00287   0.03819   0.03530   3.13256
   D10        1.04931   0.00020  -0.00325   0.04213   0.03884   1.08815
   D11       -1.22326  -0.00001  -0.00035   0.04475   0.04445  -1.17881
   D12        3.01197   0.00019  -0.00073   0.04870   0.04799   3.05996
         Item               Value     Threshold  Converged?
 Maximum Force            0.000864     0.000450     NO 
 RMS     Force            0.000302     0.000300     NO 
 Maximum Displacement     0.095596     0.001800     NO 
 RMS     Displacement     0.028792     0.001200     NO 
 Predicted change in Energy=-1.941785D-05
 GradGradGradGradGradGradGradGradGradGradGradGradGradGradGradGradGradGrad

                          Input orientation:                          
 ---------------------------------------------------------------------
 Center     Atomic      Atomic             Coordinates (Angstroms)
 Number     Number       Type             X           Y           Z
 ---------------------------------------------------------------------
      1          6           0        2.270295    2.934591   -0.203425
      2          6           0        1.890947    1.699286    0.238572
      3          1           0       -1.044241    2.232401   -0.218376
      4          1           0       -2.089526   -2.150395   -0.340817
      5          1           0        0.549431   -2.762029    0.124531
      6         50           0       -0.147481    0.937303    0.527591
      7         50           0       -0.472528   -1.553714   -0.590921
      8          9           0        2.931810    0.757641    0.610881
      9         35           0        4.117122    3.549867   -0.379508
     10          1           0        1.526866    3.676216   -0.501356
 ---------------------------------------------------------------------
                    Distance matrix (angstroms):
                    1          2          3          4          5
     1  C    0.000000
     2  C    1.365739   0.000000
     3  H    3.388132   3.018002   0.000000
     4  H    6.699551   5.567755   4.507384   0.000000
     5  H    5.959900   4.660044   5.253733   2.748588   0.000000
     6  Sn   3.220122   2.195299   1.742965   3.749606   3.785921
     7  Sn   5.274288   4.105616   3.847118   1.741626   1.736749
     8  F    2.416568   1.452138   4.321060   5.880154   4.277890
     9  Br   1.954569   2.960157   5.329291   8.427156   7.267910
    10  H    1.091539   2.142031   2.962308   6.859552   6.542027
                    6          7          8          9         10
     6  Sn   0.000000
     7  Sn   2.749889   0.000000
     8  F    3.085652   4.286748   0.000000
     9  Br   5.082830   6.867032   3.190981   0.000000
    10  H    3.371026   5.599801   3.424765   2.596196   0.000000
 Stoichiometry    C2H4BrFSn2
 Framework group  C1[X(C2H4BrFSn2)]
 Deg. of freedom    24
 Full point group                 C1      NOp   1
 Largest Abelian subgroup         C1      NOp   1
 Largest concise Abelian subgroup C1      NOp   1
                         Standard orientation:                         
[...]
     2   6     0.00   0.00   0.00     0.00   0.00   0.00     0.01   0.00   0.00
     3   1    -0.01  -0.06   0.06    -0.03  -0.11   0.14     0.00   0.00   0.00
     4   1     0.85  -0.44   0.03     0.24  -0.12  -0.01     0.00   0.00   0.00
     5   1     0.00   0.21  -0.21    -0.06  -0.63   0.71     0.00   0.00   0.00
     6  50     0.00   0.00   0.00     0.00   0.00   0.00     0.00   0.00   0.00
     7  50    -0.01   0.00   0.00     0.00   0.01  -0.01     0.00   0.00   0.00
     8   9     0.00   0.00   0.00     0.00   0.00   0.00     0.00   0.00   0.00
     9  35     0.00   0.00   0.00     0.00   0.00   0.00     0.00   0.00   0.00
    10   1     0.00   0.00   0.00     0.00   0.00   0.00     0.03   0.74  -0.66

 -------------------
 - Thermochemistry -
 -------------------
 Temperature   298.150 Kelvin.  Pressure   1.00000 Atm.
 Atom     1 has atomic number  6 and mass  12.00000
 Atom     2 has atomic number  6 and mass  12.00000
 Atom     3 has atomic number  1 and mass   1.00783
 Atom     4 has atomic number  1 and mass   1.00783
 Atom     5 has atomic number  1 and mass   1.00783
 Atom     6 has atomic number 50 and mass 117.90180
 Atom     7 has atomic number 50 and mass 117.90180
 Atom     8 has atomic number  9 and mass  18.99840
 Atom     9 has atomic number 35 and mass  78.91834
 Atom    10 has atomic number  1 and mass   1.00783
 Molecular mass:   361.75164 amu.
 Principal axes and moments of inertia in atomic units:
                           1         2         3
     Eigenvalues --  1044.131648894.322539631.28566
           X            1.00000   0.00119  -0.00288
           Y           -0.00134   0.99860  -0.05297
           Z            0.00281   0.05297   0.99859
 This molecule is an asymmetric top.
 Rotational symmetry number  1.
 Warning -- assumption of classical behavior for rotation
           may cause significant error
 Rotational temperatures (Kelvin)      0.08295     0.00974     0.00899
 Rotational constants (GHZ):           1.72846     0.20291     0.18738
 Zero-point vibrational energy     112549.6 (Joules/Mol)
                                   26.89999 (Kcal/Mol)
 Warning -- explicit consideration of  13 degrees of freedom as
           vibrations may cause significant error
 Vibrational temperatures:     37.93    48.36   169.27   183.64   215.92
          (Kelvin)            257.04   279.61   338.77   486.39   559.36
                              671.05   705.24   848.01   907.57  1014.09
                             1115.36  1147.31  1380.61  1838.46  2244.33
                             2639.47  2647.35  2671.18  4666.83
 
 Zero-point correction=                           0.042868 (Hartree/Particle)
 Thermal correction to Energy=                    0.052980
 Thermal correction to Enthalpy=                  0.053924
 Thermal correction to Gibbs Free Energy=         0.002289
 Sum of electronic and zero-point Energies=           -197.369436
 Sum of electronic and thermal Energies=              -197.359324
 Sum of electronic and thermal Enthalpies=            -197.358380
 Sum of electronic and thermal Free Energies=         -197.410016
 
                     E (Thermal)             CV                S
                      KCal/Mol        Cal/Mol-Kelvin    Cal/Mol-Kelvin
 Total                   33.245             31.782            108.676
 Electronic               0.000              0.000              0.000
 Translational            0.889              2.981             43.551
 Rotational               0.889              2.981             32.858
 Vibrational             31.468             25.820             32.267
 Vibration     1          0.593              1.985              6.086
 Vibration     2          0.594              1.983              5.604
 Vibration     3          0.608              1.935              3.139
 Vibration     4          0.611              1.926              2.981
 Vibration     5          0.618              1.903              2.671
 Vibration     6          0.629              1.869              2.342
 Vibration     7          0.635              1.848              2.186
 Vibration     8          0.655              1.787              1.837
 Vibration     9          0.718              1.599              1.221
 Vibration    10          0.757              1.494              1.005
 Vibration    11          0.824              1.325              0.748
 Vibration    12          0.846              1.272              0.683
 Vibration    13          0.947              1.054              0.468
                       Q            Log10(Q)             Ln(Q)
 Total Bot       0.885844D-01         -1.052643         -2.423800
 Total V=0       0.462554D+19         18.665163         42.978126
 Vib (Bot)       0.967528D-16        -16.014336        -36.874372
 Vib (Bot)    1  0.785452D+01          0.895120          2.061090
 Vib (Bot)    2  0.615827D+01          0.789459          1.817796
 Vib (Bot)    3  0.173792D+01          0.240030          0.552688
 Vib (Bot)    4  0.159822D+01          0.203636          0.468889
 Vib (Bot)    5  0.135111D+01          0.130689          0.300924
 Vib (Bot)    6  0.112476D+01          0.051060          0.117570
 Vib (Bot)    7  0.102819D+01          0.012075          0.027804
 Vib (Bot)    8  0.834477D+00         -0.078586         -0.180950
 Vib (Bot)    9  0.549936D+00         -0.259688         -0.597954
 Vib (Bot)   10  0.462189D+00         -0.335180         -0.771782
 Vib (Bot)   11  0.362745D+00         -0.440399         -1.014056
 Vib (Bot)   12  0.338216D+00         -0.470806         -1.084070
 Vib (Bot)   13  0.256103D+00         -0.591586         -1.362177
 Vib (V=0)       0.505207D+04          3.703469          8.527553
 Vib (V=0)    1  0.837042D+01          0.922747          2.124704
 Vib (V=0)    2  0.667854D+01          0.824681          1.898899
 Vib (V=0)    3  0.230841D+01          0.363314          0.836561
 Vib (V=0)    4  0.217460D+01          0.337380          0.776847
 Vib (V=0)    5  0.194066D+01          0.287948          0.663026
 Vib (V=0)    6  0.173089D+01          0.238269          0.548635
 Vib (V=0)    7  0.164332D+01          0.215722          0.496719
 Vib (V=0)    8  0.147281D+01          0.168146          0.387170
 Vib (V=0)    9  0.124326D+01          0.094561          0.217734
 Vib (V=0)   10  0.118090D+01          0.072211          0.166273
 Vib (V=0)   11  0.111772D+01          0.048335          0.111295
 Vib (V=0)   12  0.110365D+01          0.042830          0.098620
 Vib (V=0)   13  0.106177D+01          0.026032          0.059940
 Electronic      0.100000D+01          0.000000          0.000000
 Translational   0.270440D+09          8.432071         19.415561
 Rotational      0.338550D+07          6.529623         15.035012
 ***** Axes restored to original set *****
 -------------------------------------------------------------------
 Center     Atomic                   Forces (Hartrees/Bohr)
 Number     Number              X              Y              Z
 -------------------------------------------------------------------
      1        6          -0.000062112    0.000055921   -0.000020197
      2        6           0.000075003   -0.000119647    0.000072347
      3        1          -0.000002959   -0.000007389   -0.000002236
      4        1          -0.000003522    0.000013839    0.000001662
      5        1           0.000003274    0.000003588    0.000000094
      6       50           0.000006242    0.000015035   -0.000025681
      7       50          -0.000011337   -0.000006161    0.000001417
      8        9          -0.000020053    0.000053648   -0.000026914
      9       35           0.000013814   -0.000009706    0.000004078
     10        1           0.000001652    0.000000871   -0.000004570
 -------------------------------------------------------------------
 Cartesian Forces:  Max     0.000119647 RMS     0.000035726

 GradGradGradGradGradGradGradGradGradGradGradGradGradGradGradGradGradGrad
 Berny optimization.
 Internal  Forces:  Max     0.000088404 RMS     0.000030249
 Search for a local minimum.
 Step number   1 out of a maximum of    2
 All quantities printed in internal units (Hartrees-Bohrs-Radians)
 Second derivative matrix not updated -- analytic derivatives used.
     Eigenvalues ---    0.00278   0.00630   0.01112   0.01645   0.03282
     Eigenvalues ---    0.03446   0.03967   0.04283   0.05740   0.06681
     Eigenvalues ---    0.07435   0.08633   0.10333   0.11245   0.12290
     Eigenvalues ---    0.12825   0.12970   0.13090   0.15049   0.18939
     Eigenvalues ---    0.20899   0.29928   0.37015   0.554931000.00000
     Eigenvalues --- 1000.000001000.000001000.000001000.000001000.00000
     Eigenvalues --- 1000.000001000.000001000.00000
 Angle between quadratic step and forces=  52.67 degrees.
 Linear search not attempted -- first point.
 Iteration  1 RMS(Cart)=  0.00395388 RMS(Int)=  0.00000417
 Iteration  2 RMS(Cart)=  0.00000606 RMS(Int)=  0.00000012
 Iteration  3 RMS(Cart)=  0.00000000 RMS(Int)=  0.00000012
 Variable       Old X    -DE/DX   Delta X   Delta X   Delta X     New X
                                 (Linear)    (Quad)   (Total)
    R1        2.58045   0.00004   0.00000   0.00014   0.00014   2.58059
    R2        3.69529   0.00001   0.00000   0.00011   0.00011   3.69540
    R3        2.06255   0.00000   0.00000  -0.00001  -0.00001   2.06253
    R4        4.14986   0.00000   0.00000  -0.00017  -0.00017   4.14969
    R5        2.74050  -0.00006   0.00000  -0.00054  -0.00054   2.73996
    R6        3.29492   0.00000   0.00000  -0.00002  -0.00002   3.29491
    R7        3.29281   0.00000   0.00000   0.00003   0.00003   3.29283
    R8        3.28331   0.00000   0.00000   0.00002   0.00002   3.28333
    R9        5.19977  -0.00001   0.00000  -0.00023  -0.00023   5.19954
    A1        2.18541  -0.00004   0.00000  -0.00030  -0.00030   2.18512
    A2        2.11126   0.00002   0.00000   0.00022   0.00022   2.11148
    A3        1.98649   0.00002   0.00000   0.00008   0.00008   1.98657
    A4        2.23528  -0.00009   0.00000  -0.00159  -0.00159   2.23369
    A5        2.06374   0.00001   0.00000   0.00018   0.00018   2.06392
    A6        1.98369   0.00008   0.00000   0.00142   0.00142   1.98511
    A7        1.73361  -0.00002   0.00000  -0.00044  -0.00044   1.73317
    A8        1.95747   0.00008   0.00000   0.00254   0.00254   1.96002
    A9        2.03103  -0.00003   0.00000  -0.00075  -0.00075   2.03028
   A10        1.82052   0.00002   0.00000   0.00022   0.00022   1.82073
   A11        1.93363  -0.00003   0.00000  -0.00139  -0.00139   1.93223
   A12        1.96825   0.00000   0.00000   0.00012   0.00012   1.96837
    D1        3.10560   0.00000   0.00000   0.00005   0.00005   3.10565
    D2       -0.00044   0.00000   0.00000  -0.00008  -0.00008  -0.00051
    D3       -0.04354   0.00000   0.00000   0.00001   0.00001  -0.04353
    D4        3.13360  -0.00001   0.00000  -0.00011  -0.00011   3.13349
    D5        0.15670   0.00000   0.00000  -0.00143  -0.00143   0.15527
    D6        2.31331  -0.00001   0.00000  -0.00139  -0.00139   2.31192
    D7       -3.01909   0.00000   0.00000  -0.00132  -0.00132  -3.02041
    D8       -0.86248   0.00000   0.00000  -0.00128  -0.00128  -0.86376
    D9        3.09343  -0.00001   0.00000   0.00104   0.00104   3.09447
   D10        1.06028  -0.00001   0.00000   0.00161   0.00161   1.06189
   D11       -1.21050   0.00001   0.00000   0.00180   0.00180  -1.20870
   D12        3.03953   0.00001   0.00000   0.00237   0.00237   3.04190
         Item               Value     Threshold  Converged?
 Maximum Force            0.000088     0.000450     YES
 RMS     Force            0.000030     0.000300     YES
 Maximum Displacement     0.008707     0.001800     NO 
 RMS     Displacement     0.003952     0.001200     NO 
 Predicted change in Energy=-3.082554D-07
 GradGradGradGradGradGradGradGradGradGradGradGradGradGradGradGradGradGrad

 1\1\GINC-MALLOS66\Freq\RMP2-FC\SDD\C2H4Br1F1Sn2\MARLIN\25-Oct-2024\0\\
 #N Geom=AllCheck Guess=TCheck SCRF=Check GenChk RMP2(FC)/SDD Freq\\Tit
 le Card Required\\0,1\C,2.2733575144,2.9358359212,-0.2007230795\C,1.88
 83177754,1.7003991996,0.2352467347\H,-1.0437180218,2.2392838256,-0.230
 2505264\H,-2.0902740597,-2.1626373269,-0.2956043202\H,0.5641911271,-2.
 7526061896,0.1007676109\Sn,-0.1521455154,0.936606234,0.5102001673\Sn,-
 0.4846934657,-1.5585068953,-0.6011674453\F,2.9198683647,0.7538351483,0
 .613430851\Br,4.1232518011,3.5490141591,-0.3611518297\H,1.5345401199,3
 .6799433039,-0.5035770428\\Version=EM64L-G09RevA.01\State=1-A\HF=-196.
 9992941\MP2=-197.4123042\RMSD=3.712e-09\RMSF=3.573e-05\ZeroPoint=0.042
 8679\Thermal=0.0529798\Dipole=-1.3414586,-0.0515314,-0.2633384\DipoleD
 eriv=0.599332,0.315653,-0.0558643,0.3879815,0.1491237,-0.0618809,-0.08
 98674,-0.1301645,-0.2620383,-0.0984786,-0.5552869,0.2664701,-0.5332398
 ,-0.0354619,-0.1550212,0.3050729,0.2075848,0.1539038,-0.2985438,-0.039
 8294,-0.0111796,0.1073722,-0.3930939,0.0691077,-0.0468558,0.3144938,-0
 .0437476,-0.4051702,-0.1822096,-0.0427291,-0.1693235,-0.3339835,0.0397
 904,0.1196826,0.2781165,-0.0291298,-0.230376,0.0346654,-0.0072458,0.06
 29903,-0.4119185,0.0697349,0.0054717,0.3470077,-0.0310752,1.0447679,0.
 4801053,0.0429562,0.159791,0.827383,-0.1113112,-0.136742,-0.6236306,0.
 1690473,0.6492222,0.1008197,0.0384095,0.0825399,0.8080042,-0.1013912,-
 0.1284151,-0.6152651,0.1191921,-0.5835827,0.2730999,-0.2352911,0.12430
 02,-0.4962368,0.1714001,-0.0611461,0.1358803,-0.2616338,-0.5301897,-0.
 3966812,0.018732,-0.2102814,-0.210878,0.0209147,0.0320635,0.0304737,0.
 0047436,-0.1469811,-0.0303361,-0.0142578,-0.0121304,0.0970616,0.058656
 8,0.0007358,0.0555032,0.1807379\Polar=131.0416191,46.1742798,173.65604
 79,5.596315,32.167192,71.8568763\PG=C01 [X(C2H4Br1F1Sn2)]\NImag=0\\0.4
 1843484,-0.02998616,0.67150691,0.02319719,-0.22159645,0.15500105,-0.10
 193087,-0.09409945,0.03241406,0.36052638,-0.11543121,-0.40524964,0.132
 65397,0.06966805,0.56000254,0.04049827,0.13311740,-0.08002025,-0.01950
 289,-0.17730513,0.13270371,0.00095496,0.00002448,-0.00002471,-0.001700
 52,0.00772805,-0.00459957,0.04379955,0.00087477,-0.00049533,0.00018203
 ,-0.00123462,0.00122486,-0.00018568,-0.04423138,0.07620086,-0.00029631
 ,0.00001493,-0.00005795,0.00128830,0.00056677,-0.00062835,0.02559565,-
 0.03718717,0.02682889,0.00024853,0.00026609,-0.00011681,0.00009542,0.0
 0000939,-0.00016776,0.00010251,-0.00026325,-0.00004730,0.11156032,-0.0
 0017686,0.00021522,-0.00011738,0.00085814,-0.00186156,-0.00206103,0.00
 035796,-0.00032323,-0.00098560,0.03683833,0.02585257,-0.00094241,-0.00
 053352,0.00020853,0.00036157,-0.00124260,0.00029400,0.00012444,-0.0010
 3312,-0.00122403,-0.01692191,-0.00818273,0.00917715,0.00015096,-0.0001
 2068,0.00003525,-0.00017661,0.00080926,-0.00010388,0.00020194,-0.00019
 797,-0.00075486,-0.00569779,0.00681718,-0.00451918,0.05670749,0.000213
 41,0.00019647,-0.00008433,0.00026730,-0.00054224,-0.00078383,-0.000140
 41,-0.00118067,-0.00221385,-0.00271784,0.00299105,-0.00041073,-0.04918
 696,0.06709997,-0.00024446,-0.00074199,0.00026118,-0.00012381,0.000524
 33,-0.00184477,-0.00072034,-0.00207999,0.00016012,0.00228322,-0.000509
 07,0.00079816,0.02920532,-0.03348432,0.02438318,-0.00559673,-0.0021067
 9,0.00061237,-0.09217984,-0.03503468,0.01714670,-0.03834107,0.04391717
 ,-0.02807887,-0.00052927,-0.00452675,-0.00269189,0.00024541,0.00312527
 ,0.00058719,0.15087331,-0.01242142,-0.00294134,0.00108352,-0.03446853,
 -0.02814926,0.00896287,0.03617409,-0.07954880,0.04368253,0.00190298,0.
 00279948,-0.00146198,-0.00074052,0.00128763,-0.00293160,0.00187545,0.1
 8159559,0.00327330,0.00086510,0.00091190,0.01149849,0.00195331,-0.0134
 4684,-0.02107065,0.03286782,-0.02772219,0.00202190,0.00658305,0.001020
 97,0.00079941,0.00803697,0.00209040,0.01609087,-0.02910938,0.05357751,
 -0.00126117,0.00035717,-0.00024992,0.00089617,-0.00629852,-0.00207796,
 0.00046450,0.00273227,0.00141953,-0.10552268,-0.03950921,0.02422220,-0
 .05170227,0.04926919,-0.03191392,-0.00869725,-0.00704893,-0.00425954,0
 .16648553,0.00074259,0.00034927,-0.00010527,-0.00061827,0.00132545,-0.
 00114424,-0.00025443,0.00208981,-0.00293268,-0.03582705,-0.02974424,0.
 01315054,0.04290019,-0.07010853,0.03956048,-0.00822730,-0.06861082,-0.
 02446412,-0.00039517,0.16410664,0.00174178,0.00189610,-0.00052987,0.00
 030820,0.00253001,0.00229911,0.00077910,0.00807257,0.00173640,0.012965
 33,0.00512528,-0.01042038,-0.02471753,0.02895790,-0.02601202,-0.002733
 71,-0.02367635,-0.01784337,0.01249050,-0.02401773,0.05131883,-0.006404
 57,-0.00046953,-0.00020159,-0.14261521,0.09627328,-0.03710092,-0.00507
 201,-0.00170467,0.00080808,-0.00005150,-0.00028966,0.00028465,0.000200
 53,-0.00052086,0.00049865,-0.01009844,0.01540572,-0.00721859,-0.000272
 54,0.00060433,-0.00080427,0.15699012,0.04264795,-0.03493379,0.01522436
 ,0.06483685,-0.11164581,0.03207134,0.00015932,0.00136720,-0.00058887,-
 0.00018396,0.00017032,-0.00011585,-0.00030699,0.00027304,-0.00050570,-
 0.00017547,-0.00405150,0.00235368,0.00115595,0.00003134,0.00087852,-0.
 10607000,0.15000474,-0.01569844,0.01342871,-0.00232402,-0.02723725,0.0
 3398306,-0.04188493,-0.00021284,-0.00025464,0.00105161,-0.00001750,0.0
 0000260,0.00009505,0.00005851,-0.00004271,0.00011651,-0.00028999,0.001
 94486,0.00006911,0.00010428,0.00019022,-0.00028221,0.04252841,-0.05191
 383,0.03792037,-0.12148784,-0.02743190,0.00685981,-0.02852519,-0.00476
 188,0.00070121,-0.00029249,0.00011828,0.00007118,-0.00016474,-0.000328
 07,0.00004339,0.00006400,-0.00027349,0.00037731,0.00434627,-0.00004294
 ,-0.00136665,-0.00036983,0.00102080,0.00003506,0.00545039,0.00175224,-
 0.00020305,0.16031569,-0.02722061,-0.03563153,0.00604999,-0.02695600,-
 0.00517277,0.00506310,-0.00002644,0.00028637,-0.00003490,-0.00004865,-
 0.00007069,-0.00009180,0.00004339,-0.00005236,0.00023998,0.00179197,-0
 .00096313,0.00038226,-0.00019762,0.00060355,0.00006961,-0.00117575,0.0
 0094878,-0.00215776,0.04684691,0.03628982,0.00645255,0.00597874,-0.019
 03137,0.00899771,0.00563409,0.00869914,0.00009388,-0.00006265,0.000057
 28,0.00004954,0.00035727,0.00006712,-0.00001412,0.00015884,0.00013413,
 -0.00123377,0.00050510,0.00219361,0.00042482,-0.00013704,-0.00045938,0
 .00057383,-0.00202602,-0.00425068,-0.01202934,-0.00912899,0.01020689,-
 0.18310811,0.15356678,-0.06252563,0.00561028,-0.01296175,0.00520681,-0
 .00011737,-0.00001061,-0.00000541,-0.00004081,-0.00004106,0.00003914,0
 .00000634,-0.00003559,0.00005085,-0.00002239,-0.00063590,0.00023146,-0
 .00002046,0.00005430,-0.00006447,0.00187322,-0.00381588,0.00096788,-0.
 01933627,0.00694281,-0.00331509,0.19515557,0.14075755,-0.19301624,0.06
 670955,0.02174652,-0.00993158,0.00226521,0.00020878,0.00037893,-0.0003
 2117,0.00002396,-0.00002892,-0.00007821,-0.00001689,0.00003564,-0.0000
 7211,-0.00063887,-0.00141784,0.00053132,-0.00006512,-0.00004248,0.0001
 6410,-0.00205286,-0.00216433,0.00481948,-0.01689997,0.00376195,-0.0012
 7933,-0.14306310,0.20242486,-0.05798146,0.06757099,-0.05441920,-0.0080
 0437,0.00070219,-0.00617081,0.00003505,-0.00031917,-0.00020179,-0.0000
 4871,-0.00021240,-0.00001657,0.00001108,-0.00013393,-0.00008689,0.0005
 9108,0.00100045,-0.00085111,-0.00015999,-0.00010016,0.00019288,0.00063
 174,0.00462237,0.00948919,0.00551109,-0.00039148,0.00238324,0.05941447
 ,-0.07273885,0.04968105\\0.00006211,-0.00005592,0.00002020,-0.00007500
 ,0.00011965,-0.00007235,0.00000296,0.00000739,0.00000224,0.00000352,-0
 .00001384,-0.00000166,-0.00000327,-0.00000359,-0.00000009,-0.00000624,
 -0.00001504,0.00002568,0.00001134,0.00000616,-0.00000142,0.00002005,-0
 .00005365,0.00002691,-0.00001381,0.00000971,-0.00000408,-0.00000165,-0
 .00000087,0.00000457\\\@


 EVERYTHING'S GOT A MORAL, IF ONLY YOU CAN FIND IT.

                                    -- LEWIS CARROL, ALICE IN WONDERLAND
 Job cpu time:  0 days  0 hours  4 minutes 32.1 seconds.
 File lengths (MBytes):  RWF=    197 Int=      0 D2E=      0 Chk=      2 Scr=      1
 Normal termination of Gaussian 09 at Fri Oct 25 12:52:44 2024.
