 Entering Gaussian System, Link 0=g09
 Initial command:
 /u/local/G09/g09/l1.exe /tmp/marlin/22660.mallos00.local/Gau-6361.inp -scrdir=/tmp/marlin/22660.mallos00.local/
 Entering Link 1 = /u/local/G09/g09/l1.exe PID=      6363.
  
 Copyright (c) 1988,1990,1992,1993,1995,1998,2003,2009, Gaussian, Inc.
                  All Rights Reserved.
  
 This is part of the Gaussian(R) 09 program.  It is based on
 the Gaussian(R) 03 system (copyright 2003, Gaussian, Inc.),
 the Gaussian(R) 98 system (copyright 1998, Gaussian, Inc.),
 the Gaussian(R) 94 system (copyright 1995, Gaussian, Inc.),
 the Gaussian 92(TM) system (copyright 1992, Gaussian, Inc.),
 the Gaussian 90(TM) system (copyright 1990, Gaussian, Inc.),
 the Gaussian 88(TM) system (copyright 1988, Gaussian, Inc.),
 the Gaussian 86(TM) system (copyright 1986, Carnegie Mellon
 University), and the Gaussian 82(TM) system (copyright 1983,
 Carnegie Mellon University). Gaussian is a federally registered
 trademark of Gaussian, Inc.
  
 This software contains proprietary and confidential information,
 including trade secrets, belonging to Gaussian, Inc.
  
 This software is provided under written license and may be
 used, copied, transmitted, or stored only in accord with that
 written license.
  
 The following legend is applicable only to US Government
 contracts under FAR:
  
                    RESTRICTED RIGHTS LEGEND
  
 Use, reproduction and disclosure by the US Government is
 subject to restrictions as set forth in subparagraphs (a)
 and (c) of the Commercial Computer Software - Restricted
 Rights clause in FAR 52.227-19.
  
 Gaussian, Inc.
 340 Quinnipiac St., Bldg. 40, Wallingford CT 06492
  
  
 ---------------------------------------------------------------
 Warning -- This program may not be used in any manner that
 competes with the business of Gaussian, Inc. or will provide
 assistance to any competitor of Gaussian, Inc.  The licensee
 of this program is prohibited from giving any competitor of
 Gaussian, Inc. access to this program.  By using this program,
 the user acknowledges that Gaussian, Inc. is engaged in the
 business of creating and licensing software in the field of
 computational chemistry and represents and warrants to the
 licensee that it is not a competitor of Gaussian, Inc. and that
 it will not use this program in any manner prohibited above.
 ---------------------------------------------------------------
  

 Cite this work as:
 Gaussian 09, Revision A.01,
 M. J. Frisch, G. W. Trucks, H. B. Schlegel, G. E. Scuseria, 
 M. A. Robb, J. R. Cheeseman, G. Scalmani, V. Barone, B. Mennucci, 
 G. A. Petersson, H. Nakatsuji, M. Caricato, X. Li, H. P. Hratchian, 
 A. F. Izmaylov, J. Bloino, G. Zheng, J. L. Sonnenberg, M. Hada, 
 M. Ehara, K. Toyota, R. Fukuda, J. Hasegawa, M. Ishida, T. Nakajima, 
 Y. Honda, O. Kitao, H. Nakai, T. Vreven, J. A. Montgomery, Jr., 
 J. E. Peralta, F. Ogliaro, M. Bearpark, J. J. Heyd, E. Brothers, 
 K. N. Kudin, V. N. Staroverov, R. Kobayashi, J. Normand, 
 K. Raghavachari, A. Rendell, J. C. Burant, S. S. Iyengar, J. Tomasi, 
 M. Cossi, N. Rega, J. M. Millam, M. Klene, J. E. Knox, J. B. Cross, 
 V. Bakken, C. Adamo, J. Jaramillo, R. Gomperts, R. E. Stratmann, 
 O. Yazyev, A. J. Austin, R. Cammi, C. Pomelli, J. W. Ochterski, 
 R. L. Martin, K. Morokuma, V. G. Zakrzewski, G. A. Voth, 
 P. Salvador, J. J. Dannenberg, S. Dapprich, A. D. Daniels, 
 O. Farkas, J. B. Foresman, J. V. Ortiz, J. Cioslowski, 
 and D. J. Fox, Gaussian, Inc., Wallingford CT, 2009.
 
 ******************************************
 Gaussian 09:  EM64L-G09RevA.01  8-May-2009
                24-Oct-2024 
 ******************************************
 %mem=412GB
 %nproc=24
 Will use up to   24 processors via shared memory.
 %chk=4-lanl2dz.chk
 -----------------------------------------------
 # opt freq=noraman hf/lanl2dz geom=connectivity
 -----------------------------------------------
 1/18=20,19=15,38=1,57=2/1,3;
 2/9=110,12=2,17=6,18=5,40=1/2;
 3/5=6,6=3,11=9,16=1,25=1,30=1,71=1/1,2,3;
 4//1;
 5/5=2,38=5/2;
 6/7=2,8=2,9=2,10=2,28=1/1;
 7//1,2,3,16;
 1/18=20,19=15/3(2);
 2/9=110/2;
 99//99;
 2/9=110/2;
 3/5=6,6=3,11=9,16=1,25=1,30=1,71=1/1,2,3;
 4/5=5,16=3/1;
 5/5=2,38=5/2;
 7//1,2,3,16;
 1/18=20,19=15/3(-5);
 2/9=110/2;
 6/7=2,8=2,9=2,10=2,19=2,28=1/1;
 99/9=1/99;
 -------------------
 Title Card Required
 -------------------
 Symbolic Z-matrix:
 Charge =  0 Multiplicity = 1
 C                     2.25546   2.98342   0. 
 C                     1.95702   1.67669   0. 
 H                    -0.98178   2.06924  -0.75552 
 H                    -2.2088   -2.08731   0. 
 H                     0.57987  -2.78595   0. 
 Sn                    0.        0.91451   0. 
 Sn                   -0.60005  -1.57956   0. 
 Br                    4.06556   3.59306   0. 
 F                     1.31494   3.95188   0. 
 H                     2.7589    0.96825   0. 
 

 GradGradGradGradGradGradGradGradGradGradGradGradGradGradGradGradGradGrad
 Berny optimization.
 Initialization pass.
                           ----------------------------
                           !    Initial Parameters    !
                           ! (Angstroms and Degrees)  !
 --------------------------                            --------------------------
 ! Name  Definition              Value          Derivative Info.                !
 --------------------------------------------------------------------------------
 ! R1    R(1,2)                  1.3404         estimate D2E/DX2                !
 ! R2    R(1,8)                  1.91           estimate D2E/DX2                !
 ! R3    R(1,9)                  1.35           estimate D2E/DX2                !
 ! R4    R(2,6)                  2.1002         estimate D2E/DX2                !
 ! R5    R(2,10)                 1.07           estimate D2E/DX2                !
 ! R6    R(3,6)                  1.6935         estimate D2E/DX2                !
 ! R7    R(4,7)                  1.687          estimate D2E/DX2                !
 ! R8    R(5,7)                  1.6875         estimate D2E/DX2                !
 ! R9    R(6,7)                  2.5652         estimate D2E/DX2                !
 ! A1    A(2,1,8)              121.4784         estimate D2E/DX2                !
 ! A2    A(2,1,9)              122.9738         estimate D2E/DX2                !
 ! A3    A(8,1,9)              115.5478         estimate D2E/DX2                !
 ! A4    A(1,2,6)              124.1436         estimate D2E/DX2                !
 ! A5    A(1,2,10)             118.5949         estimate D2E/DX2                !
 ! A6    A(6,2,10)             117.2615         estimate D2E/DX2                !
 ! A7    A(2,6,3)              107.0231         estimate D2E/DX2                !
 ! A8    A(2,6,7)              124.8064         estimate D2E/DX2                !
 ! A9    A(3,6,7)              121.8242         estimate D2E/DX2                !
 ! A10   A(4,7,5)              116.8478         estimate D2E/DX2                !
 ! A11   A(4,7,6)              121.0443         estimate D2E/DX2                !
 ! A12   A(5,7,6)              122.1079         estimate D2E/DX2                !
 ! D1    D(8,1,2,6)            180.0            estimate D2E/DX2                !
 ! D2    D(8,1,2,10)             0.0            estimate D2E/DX2                !
 ! D3    D(9,1,2,6)              0.0            estimate D2E/DX2                !
 ! D4    D(9,1,2,10)           180.0            estimate D2E/DX2                !
 ! D5    D(1,2,6,3)             27.8113         estimate D2E/DX2                !
 ! D6    D(1,2,6,7)            180.0            estimate D2E/DX2                !
 ! D7    D(10,2,6,3)          -152.1887         estimate D2E/DX2                !
 ! D8    D(10,2,6,7)             0.0            estimate D2E/DX2                !
 ! D9    D(2,6,7,4)            180.0            estimate D2E/DX2                !
 ! D10   D(2,6,7,5)              0.0            estimate D2E/DX2                !
 ! D11   D(3,6,7,4)            -31.6716         estimate D2E/DX2                !
 ! D12   D(3,6,7,5)            148.3284         estimate D2E/DX2                !
 --------------------------------------------------------------------------------
 Trust Radius=3.00D-01 FncErr=1.00D-07 GrdErr=1.00D-07
 Number of steps in this run=  43 maximum allowed number of steps= 100.
 GradGradGradGradGradGradGradGradGradGradGradGradGradGradGradGradGradGrad

                          Input orientation:                          
 ---------------------------------------------------------------------
 Center     Atomic      Atomic             Coordinates (Angstroms)
 Number     Number       Type             X           Y           Z
 ---------------------------------------------------------------------
      1          6           0        2.255461    2.983417    0.000000
      2          6           0        1.957023    1.676688    0.000000
      3          1           0       -0.981784    2.069236   -0.755523
      4          1           0       -2.208804   -2.087312    0.000000
      5          1           0        0.579873   -2.785954    0.000000
      6         50           0        0.000000    0.914514    0.000000
      7         50           0       -0.600048   -1.579560    0.000000
      8         35           0        4.065555    3.593056    0.000000
      9          9           0        1.314941    3.951881    0.000000
     10          1           0        2.758903    0.968247    0.000000
 ---------------------------------------------------------------------
                    Distance matrix (angstroms):
                    1          2          3          4          5
     1  C    0.000000
     2  C    1.340375   0.000000
     3  H    3.447651   3.059656   0.000000
     4  H    6.755883   5.614429   4.399237   0.000000
     5  H    6.007765   4.670301   5.155818   2.874860   0.000000
     6  Sn   3.060631   2.100202   1.693546   3.726899   3.745626
     7  Sn   5.382814   4.140261   3.745697   1.686982   1.687483
     8  Br   1.910000   2.849276   5.326206   8.463697   7.269233
     9  F    1.350000   2.364059   3.064330   6.992041   6.777813
    10  H    2.077105   1.070000   3.971867   5.832199   4.340760
                    6          7          8          9         10
     6  Sn   0.000000
     7  Sn   2.565241   0.000000
     8  Br   4.868606   6.965903   0.000000
     9  F    3.309784   5.853548   2.773920   0.000000
    10  H    2.759426   4.215907   2.932058   3.314679   0.000000
 Stoichiometry    C2H4BrFSn2
 Framework group  C1[X(C2H4BrFSn2)]
 Deg. of freedom    24
 Full point group                 C1      NOp   1
 Largest Abelian subgroup         C1      NOp   1
 Largest concise Abelian subgroup C1      NOp   1
                         Standard orientation:                         
 ---------------------------------------------------------------------
 Center     Atomic      Atomic             Coordinates (Angstroms)
 Number     Number       Type             X           Y           Z
 ---------------------------------------------------------------------
      1          6           0       -2.392414    0.316022   -0.010020
      2          6           0       -1.207243   -0.309953    0.001435
      3          1           0        0.412209    2.187499    0.709671
      4          1           0        4.363034    0.392619   -0.013291
      5          1           0        3.073730   -2.176456    0.035388
      6         50           0        0.646941    0.676193   -0.017619
      7         50           0        2.928857   -0.495500    0.003805
      8         35           0       -4.035143   -0.658243    0.008753
      9          9           0       -2.513080    1.660381   -0.035277
     10          1           0       -1.193253   -1.379673    0.021555
 ---------------------------------------------------------------------
 Rotational constants (GHZ):      2.7463550      0.1957500      0.1827998
 Standard basis: LANL2DZ (5D, 7F)
 There are    59 symmetry adapted basis functions of A   symmetry.
 Integral buffers will be    131072 words long.
 Raffenetti 1 integral format.
 Two-electron integral symmetry is turned on.
    59 basis functions,   127 primitive gaussians,    59 cartesian basis functions
    20 alpha electrons       20 beta electrons
       nuclear repulsion energy       135.4859248354 Hartrees.
 NAtoms=   10 NActive=   10 NUniq=   10 SFac= 7.50D-01 NAtFMM=   80 NAOKFM=F Big=F
 One-electron integrals computed using PRISM.
   1 Symmetry operations used in ECPInt.
 ECPInt:  NShTT=     630 NPrTT=    3262 LenC2=     620 LenP2D=    2672.
 LDataN:  DoStor=T MaxTD1= 4 Len=   56
 NBasis=    59 RedAO= T  NBF=    59
 NBsUse=    59 1.00D-06 NBFU=    59
 Harris functional with IExCor=  205 diagonalized for initial guess.
 ExpMin= 6.30D-02 ExpMax= 1.00D+04 ExpMxC= 3.50D+02 IAcc=2 IRadAn=         0 AccDes= 0.00D+00
 HarFok:  IExCor=  205 AccDes= 0.00D+00 IRadAn=         0 IDoV= 1
 ScaDFX=  1.000000  1.000000  1.000000  1.000000
 Defaulting to unpruned grid for atomic number  50.
 Defaulting to unpruned grid for atomic number  50.
 Defaulting to unpruned grid for atomic number  50.
 Defaulting to unpruned grid for atomic number  50.
 Defaulting to unpruned grid for atomic number  50.
 Defaulting to unpruned grid for atomic number  50.
 Defaulting to unpruned grid for atomic number  50.
 Defaulting to unpruned grid for atomic number  50.
 Defaulting to unpruned grid for atomic number  50.
 Defaulting to unpruned grid for atomic number  50.
 Defaulting to unpruned grid for atomic number  50.
 Defaulting to unpruned grid for atomic number  50.
 Defaulting to unpruned grid for atomic number  50.
 Defaulting to unpruned grid for atomic number  50.
 Defaulting to unpruned grid for atomic number  50.
 Defaulting to unpruned grid for atomic number  50.
 Defaulting to unpruned grid for atomic number  50.
 Defaulting to unpruned grid for atomic number  50.
 Defaulting to unpruned grid for atomic number  50.
 Defaulting to unpruned grid for atomic number  50.
 Defaulting to unpruned grid for atomic number  50.
 Defaulting to unpruned grid for atomic number  50.
 Defaulting to unpruned grid for atomic number  50.
 Defaulting to unpruned grid for atomic number  50.
 FoFCou: FMM=F IPFlag=           0 FMFlag=      100000 FMFlg1=           0
         NFxFlg=           0 DoJE=T BraDBF=F KetDBF=T FulRan=T
         Omega=  0.000000  0.000000  1.000000  0.000000  0.000000 ICntrl=     500 IOpCl=  0
         NMat0=    1 NMatS0=    1 NMatT0=    0 NMatD0=    1 NMtDS0=    0 NMtDT0=    0
         I1Cent=           4 NGrid=           0.
 Petite list used in FoFCou.
 Initial guess orbital symmetries:
       Occupied  (A) (A) (A) (A) (A) (A) (A) (A) (A) (A) (A) (A)
                 (A) (A) (A) (A) (A) (A) (A) (A)
       Virtual   (A) (A) (A) (A) (A) (A) (A) (A) (A) (A) (A) (A)
                 (A) (A) (A) (A) (A) (A) (A) (A) (A) (A) (A) (A)
                 (A) (A) (A) (A) (A) (A) (A) (A) (A) (A) (A) (A)
                 (A) (A) (A)
 The electronic state of the initial guess is 1-A.
 Requested convergence on RMS density matrix=1.00D-08 within 128 cycles.
 Requested convergence on MAX density matrix=1.00D-06.
 Requested convergence on             energy=1.00D-06.
 No special actions if energy rises.
 Keep R1 ints in memory in canonical form, NReq=2397822.
 SCF Done:  E(RHF) =  -196.760463184     A.U. after   16 cycles
             Convg  =    0.3883D-08             -V/T =  2.0706

 **********************************************************************

            Population analysis using the SCF density.

 **********************************************************************

 Orbital symmetries:
       Occupied  (A) (A) (A) (A) (A) (A) (A) (A) (A) (A) (A) (A)
                 (A) (A) (A) (A) (A) (A) (A) (A)
       Virtual   (A) (A) (A) (A) (A) (A) (A) (A) (A) (A) (A) (A)
                 (A) (A) (A) (A) (A) (A) (A) (A) (A) (A) (A) (A)
                 (A) (A) (A) (A) (A) (A) (A) (A) (A) (A) (A) (A)
                 (A) (A) (A)
 The electronic state is 1-A.
 Alpha  occ. eigenvalues --  -26.33620 -11.41031 -11.27155  -1.66195  -1.11694
 Alpha  occ. eigenvalues --   -1.00540  -0.82752  -0.73475  -0.72228  -0.70962
 Alpha  occ. eigenvalues --   -0.66269  -0.61211  -0.56228  -0.48389  -0.47995
 Alpha  occ. eigenvalues --   -0.46236  -0.43370  -0.42042  -0.38728  -0.24945
 Alpha virt. eigenvalues --   -0.00186   0.07559   0.09071   0.13148   0.14694
 Alpha virt. eigenvalues --    0.15236   0.18798   0.26043   0.27411   0.28900
 Alpha virt. eigenvalues --    0.31494   0.32302   0.33784   0.36643   0.36987
 Alpha virt. eigenvalues --    0.43433   0.48178   0.48322   0.54488   0.56332
 Alpha virt. eigenvalues --    0.58855   0.63319   0.70488   0.70878   0.75953
 Alpha virt. eigenvalues --    0.84600   0.98466   1.16344   1.19467   1.23429
 Alpha virt. eigenvalues --    1.24854   1.30126   1.32257   1.36299   1.48918
 Alpha virt. eigenvalues --    2.34417  12.11897  13.46902  20.12068
          Condensed to atoms (all electrons):
              1          2          3          4          5          6
     1  C    5.193563   0.248012   0.003987   0.000000   0.000004  -0.066833
     2  C    0.248012   5.911232  -0.031193   0.000054   0.000379   0.230852
     3  H    0.003987  -0.031193   0.780666   0.000038   0.000012   0.387333
     4  H    0.000000   0.000054   0.000038   0.785157  -0.006391  -0.015504
     5  H    0.000004   0.000379   0.000012  -0.006391   0.796979  -0.018066
     6  Sn  -0.066833   0.230852   0.387333  -0.015504  -0.018066   2.440072
     7  Sn  -0.000951  -0.028876  -0.017239   0.364556   0.361820   0.523288
     8  Br   0.333216  -0.137249  -0.000027   0.000000   0.000000   0.002247
     9  F    0.185045  -0.046320  -0.000340   0.000000   0.000000   0.004544
    10  H   -0.023067   0.374738  -0.000008   0.000000  -0.000019  -0.011179
              7          8          9         10
     1  C   -0.000951   0.333216   0.185045  -0.023067
     2  C   -0.028876  -0.137249  -0.046320   0.374738
     3  H   -0.017239  -0.000027  -0.000340  -0.000008
     4  H    0.364556   0.000000   0.000000   0.000000
     5  H    0.361820   0.000000   0.000000  -0.000019
     6  Sn   0.523288   0.002247   0.004544  -0.011179
     7  Sn   2.533704  -0.000075   0.000127   0.002214
     8  Br  -0.000075   6.802737  -0.050679  -0.007503
     9  F    0.000127  -0.050679   9.197709   0.001548
    10  H    0.002214  -0.007503   0.001548   0.433188
 Mulliken atomic charges:
              1
     1  C    0.127025
     2  C   -0.521631
     3  H   -0.123228
     4  H   -0.127910
     5  H   -0.134718
     6  Sn   0.523246
     7  Sn   0.261430
     8  Br   0.057333
     9  F   -0.291635
    10  H    0.230087
 Sum of Mulliken atomic charges =   0.00000
 Mulliken charges with hydrogens summed into heavy atoms:
              1
     1  C    0.127025
     2  C   -0.291543
     6  Sn   0.400018
     7  Sn  -0.001198
     8  Br   0.057333
     9  F   -0.291635
 Sum of Mulliken charges with hydrogens summed into heavy atoms =   0.00000
 Electronic spatial extent (au):  <R**2>=           1313.4733
 Charge=              0.0000 electrons
 Dipole moment (field-independent basis, Debye):
    X=              1.8506    Y=             -1.6213    Z=             -0.4592  Tot=              2.5028
 Quadrupole moment (field-independent basis, Debye-Ang):
   XX=            -70.4581   YY=            -69.4178   ZZ=            -71.0412
   XY=              3.2977   XZ=             -0.5879   YZ=             -0.1199
 Traceless Quadrupole moment (field-independent basis, Debye-Ang):
   XX=             -0.1524   YY=              0.8879   ZZ=             -0.7355
   XY=              3.2977   XZ=             -0.5879   YZ=             -0.1199
 Octapole moment (field-independent basis, Debye-Ang**2):
  XXX=            108.1951  YYY=             -9.2285  ZZZ=             -1.8051  XYY=             34.0068
  XXY=            -14.5450  XXZ=             -0.4238  XZZ=             26.4769  YZZ=             -0.3974
  YYZ=             -1.5414  XYZ=              0.3276
 Hexadecapole moment (field-independent basis, Debye-Ang**3):
 XXXX=          -3062.9245 YYYY=           -394.4193 ZZZZ=           -150.7727 XXXY=             35.6237
 XXXZ=              1.7173 YYYX=             34.8984 YYYZ=             -5.1058 ZZZX=             -1.3876
 ZZZY=             -1.4892 XXYY=           -586.3494 XXZZ=           -550.8756 YYZZ=            -87.7280
 XXYZ=             -0.9937 YYXZ=             -0.2517 ZZXY=             -2.6645
 N-N= 1.354859248354D+02 E-N=-7.271794571525D+02  KE= 1.837879599993D+02
   1 Symmetry operations used in ECPInt.
 ECPInt:  NShTT=     630 NPrTT=    3262 LenC2=     620 LenP2D=    2672.
 LDataN:  DoStor=T MaxTD1= 5 Len=  102
 Calling FoFJK, ICntrl=      2127 FMM=F ISym2X=0 I1Cent= 0 IOpClX= 0 NMat=1 NMatS=1 NMatT=0.
 ***** Axes restored to original set *****
 -------------------------------------------------------------------
 Center     Atomic                   Forces (Hartrees/Bohr)
 Number     Number              X              Y              Z
 -------------------------------------------------------------------
      1        6           0.002808820   -0.051755558   -0.000429797
      2        6          -0.001567967    0.019994853   -0.001223857
      3        1          -0.004049079   -0.001966302    0.004686533
      4        1           0.000303310    0.000540820    0.002853933
      5        1          -0.000198115   -0.000859598    0.008508548
      6       50          -0.004806480    0.010004978   -0.000910571
      7       50           0.001618708   -0.003406286   -0.014840758
      8       35           0.006760091    0.012512328    0.000064278
      9        9          -0.005211910    0.012823201    0.000232280
     10        1           0.004342622    0.002111564    0.001059411
 -------------------------------------------------------------------
 Cartesian Forces:  Max     0.051755558 RMS     0.011534363

 GradGradGradGradGradGradGradGradGradGradGradGradGradGradGradGradGradGrad
 Berny optimization.
 Internal  Forces:  Max     0.024786732 RMS     0.008092458
 Search for a local minimum.
 Step number   1 out of a maximum of   43
 All quantities printed in internal units (Hartrees-Bohrs-Radians)
 Mixed Optimization -- RFO/linear search
 Second derivative matrix not updated -- first step.
     Eigenvalues ---    0.00230   0.00230   0.00230   0.00781   0.01570
     Eigenvalues ---    0.02877   0.02877   0.11426   0.13078   0.13270
     Eigenvalues ---    0.13286   0.13996   0.14973   0.16000   0.16000
     Eigenvalues ---    0.16000   0.17771   0.22000   0.22311   0.25000
     Eigenvalues ---    0.25000   0.37230   0.55021   0.571211000.00000
     Eigenvalues --- 1000.000001000.000001000.000001000.000001000.00000
     Eigenvalues --- 1000.000001000.000001000.00000
 RFO step:  Lambda=-1.96609781D-02 EMin= 2.30000000D-03
 Linear search not attempted -- first point.
 Maximum step size (   0.300) exceeded in Quadratic search.
    -- Step size scaled by   0.373
 Iteration  1 RMS(Cart)=  0.06185853 RMS(Int)=  0.00596550
 Iteration  2 RMS(Cart)=  0.00569105 RMS(Int)=  0.00279012
 Iteration  3 RMS(Cart)=  0.00002735 RMS(Int)=  0.00279002
 Iteration  4 RMS(Cart)=  0.00000019 RMS(Int)=  0.00279002
 Variable       Old X    -DE/DX   Delta X   Delta X   Delta X     New X
                                 (Linear)    (Quad)   (Total)
    R1        2.53294  -0.02479   0.00000  -0.01564  -0.01564   2.51730
    R2        3.60938   0.01040   0.00000   0.01965   0.01965   3.62903
    R3        2.55113   0.01283   0.00000   0.00840   0.00840   2.55953
    R4        3.96881   0.00508   0.00000   0.01187   0.01187   3.98068
    R5        2.02201   0.00186   0.00000   0.00177   0.00177   2.02377
    R6        3.20034  -0.00108   0.00000  -0.00269  -0.00269   3.19765
    R7        3.18793  -0.00045   0.00000  -0.00111  -0.00111   3.18683
    R8        3.18888   0.00048   0.00000   0.00117   0.00117   3.19005
    R9        4.84760   0.00322   0.00000   0.00896   0.00896   4.85657
    A1        2.12020   0.01892   0.00000   0.02617   0.02617   2.14637
    A2        2.14630  -0.00284   0.00000  -0.00392  -0.00392   2.14238
    A3        2.01669  -0.01609   0.00000  -0.02225  -0.02225   1.99444
    A4        2.16671  -0.00040   0.00000  -0.00063  -0.00063   2.16608
    A5        2.06987  -0.00430   0.00000  -0.00904  -0.00904   2.06083
    A6        2.04660   0.00471   0.00000   0.00967   0.00967   2.05627
    A7        1.86791   0.01097   0.00000   0.02442   0.02438   1.89228
    A8        2.17828  -0.01164   0.00000  -0.01525  -0.01530   2.16298
    A9        2.12623   0.00043   0.00000   0.00170   0.00163   2.12786
   A10        2.03938  -0.00034   0.00000  -0.00070  -0.01008   2.02930
   A11        2.11262  -0.00169   0.00000  -0.00351  -0.01260   2.10002
   A12        2.13119   0.00203   0.00000   0.00421  -0.00487   2.12632
    D1        3.14159  -0.00033   0.00000  -0.00321  -0.00320   3.13839
    D2        0.00000   0.00013   0.00000   0.00169   0.00167   0.00167
    D3        0.00000   0.00002   0.00000  -0.00053  -0.00052  -0.00052
    D4        3.14159   0.00048   0.00000   0.00436   0.00435  -3.13724
    D5        0.48540  -0.00055   0.00000  -0.01679  -0.01681   0.46859
    D6        3.14159   0.00019   0.00000   0.00763   0.00767  -3.13392
    D7       -2.65619  -0.00101   0.00000  -0.02162  -0.02167  -2.67787
    D8        0.00000  -0.00027   0.00000   0.00279   0.00281   0.00281
    D9        3.14159  -0.00528   0.00000  -0.08244  -0.08144   3.06015
   D10        0.00000   0.01010   0.00000   0.17889   0.17793   0.17793
   D11       -0.55277  -0.00251   0.00000  -0.04993  -0.04897  -0.60174
   D12        2.58882   0.01288   0.00000   0.21140   0.21040   2.79922
         Item               Value     Threshold  Converged?
 Maximum Force            0.024787     0.000450     NO 
 RMS     Force            0.008092     0.000300     NO 
 Maximum Displacement     0.227227     0.001800     NO 
 RMS     Displacement     0.063758     0.001200     NO 
 Predicted change in Energy=-6.800628D-03
 GradGradGradGradGradGradGradGradGradGradGradGradGradGradGradGradGradGrad

                          Input orientation:                          
 ---------------------------------------------------------------------
 Center     Atomic      Atomic             Coordinates (Angstroms)
 Number     Number       Type             X           Y           Z
 ---------------------------------------------------------------------
      1          6           0        2.264695    2.963981    0.006983
      2          6           0        1.958783    1.668060   -0.031559
      3          1           0       -1.023273    2.089408   -0.726478
      4          1           0       -2.198012   -2.086776    0.009895
      5          1           0        0.581609   -2.776119    0.120243
      6         50           0       -0.009976    0.918980   -0.043389
      7         50           0       -0.592328   -1.583480   -0.101490
      8         35           0        4.072671    3.611236    0.021736
      9          9           0        1.324268    3.938083    0.042183
     10          1           0        2.762682    0.960840   -0.053648
 ---------------------------------------------------------------------
                    Distance matrix (angstroms):
                    1          2          3          4          5
     1  C    0.000000
     2  C    1.332096   0.000000
     3  H    3.480457   3.090809   0.000000
     4  H    6.739875   5.601736   4.400314   0.000000
     5  H    5.982839   4.655145   5.192873   2.865949   0.000000
     6  Sn   3.059198   2.106483   1.692123   3.718186   3.745732
     7  Sn   5.371569   4.133469   3.750524   1.686397   1.688100
     8  Br   1.920399   2.871811   5.370701   8.472836   7.279802
     9  F    1.354443   2.358188   3.085351   6.978999   6.755601
    10  H    2.065004   1.070935   4.007470   5.822412   4.330379
                    6          7          8          9         10
     6  Sn   0.000000
     7  Sn   2.569984   0.000000
     8  Br   4.890857   6.983013   0.000000
     9  F    3.301895   5.846507   2.767846   0.000000
    10  H    2.772992   4.210931   2.957423   3.307899   0.000000
 Stoichiometry    C2H4BrFSn2
 Framework group  C1[X(C2H4BrFSn2)]
 Deg. of freedom    24
 Full point group                 C1      NOp   1
 Largest Abelian subgroup         C1      NOp   1
 Largest concise Abelian subgroup C1      NOp   1
                         Standard orientation:                         
 ---------------------------------------------------------------------
 Center     Atomic      Atomic             Coordinates (Angstroms)
 Number     Number       Type             X           Y           Z
 ---------------------------------------------------------------------
      1          6           0       -2.381396    0.295147   -0.010566
      2          6           0       -1.198818   -0.317650    0.011163
      3          1           0        0.437664    2.222215    0.662403
      4          1           0        4.356798    0.385465   -0.131009
      5          1           0        3.065600   -2.172117   -0.203468
      6         50           0        0.652641    0.686677   -0.015232
      7         50           0        2.930489   -0.503097    0.010539
      8         35           0       -4.050900   -0.653689    0.009410
      9          9           0       -2.507497    1.643078   -0.051748
     10          1           0       -1.186283   -1.388136    0.039522
 ---------------------------------------------------------------------
 Rotational constants (GHZ):      2.7299225      0.1949520      0.1820334
 Standard basis: LANL2DZ (5D, 7F)
 There are    59 symmetry adapted basis functions of A   symmetry.
 Integral buffers will be    131072 words long.
 Raffenetti 1 integral format.
 Two-electron integral symmetry is turned on.
    59 basis functions,   127 primitive gaussians,    59 cartesian basis functions
    20 alpha electrons       20 beta electrons
       nuclear repulsion energy       135.3931741005 Hartrees.
 NAtoms=   10 NActive=   10 NUniq=   10 SFac= 7.50D-01 NAtFMM=   80 NAOKFM=F Big=F
 One-electron integrals computed using PRISM.
   1 Symmetry operations used in ECPInt.
 ECPInt:  NShTT=     630 NPrTT=    3262 LenC2=     620 LenP2D=    2672.
 LDataN:  DoStor=T MaxTD1= 4 Len=   56
 NBasis=    59 RedAO= T  NBF=    59
 NBsUse=    59 1.00D-06 NBFU=    59
 Initial guess read from the read-write file.
 B after Tr=     0.000000    0.000000    0.000000
         Rot=    1.000000    0.000000    0.000000    0.000000 Ang=   0.00 deg.
 Initial guess orbital symmetries:
       Occupied  (A) (A) (A) (A) (A) (A) (A) (A) (A) (A) (A) (A)
                 (A) (A) (A) (A) (A) (A) (A) (A)
       Virtual   (A) (A) (A) (A) (A) (A) (A) (A) (A) (A) (A) (A)
                 (A) (A) (A) (A) (A) (A) (A) (A) (A) (A) (A) (A)
                 (A) (A) (A) (A) (A) (A) (A) (A) (A) (A) (A) (A)
                 (A) (A) (A)
 Harris functional with IExCor=  205 diagonalized for initial guess.
 ExpMin= 6.30D-02 ExpMax= 1.00D+04 ExpMxC= 3.50D+02 IAcc=2 IRadAn=         0 AccDes= 0.00D+00
 HarFok:  IExCor=  205 AccDes= 0.00D+00 IRadAn=         0 IDoV= 1
 ScaDFX=  1.000000  1.000000  1.000000  1.000000
 Defaulting to unpruned grid for atomic number  50.
 Defaulting to unpruned grid for atomic number  50.
 Defaulting to unpruned grid for atomic number  50.
 Defaulting to unpruned grid for atomic number  50.
 Defaulting to unpruned grid for atomic number  50.
 Defaulting to unpruned grid for atomic number  50.
 Defaulting to unpruned grid for atomic number  50.
 Defaulting to unpruned grid for atomic number  50.
 Defaulting to unpruned grid for atomic number  50.
 Defaulting to unpruned grid for atomic number  50.
 Defaulting to unpruned grid for atomic number  50.
 Defaulting to unpruned grid for atomic number  50.
 Defaulting to unpruned grid for atomic number  50.
 Defaulting to unpruned grid for atomic number  50.
 Defaulting to unpruned grid for atomic number  50.
 Defaulting to unpruned grid for atomic number  50.
 Defaulting to unpruned grid for atomic number  50.
 Defaulting to unpruned grid for atomic number  50.
 Defaulting to unpruned grid for atomic number  50.
 Defaulting to unpruned grid for atomic number  50.
 Defaulting to unpruned grid for atomic number  50.
 Defaulting to unpruned grid for atomic number  50.
 Defaulting to unpruned grid for atomic number  50.
 Defaulting to unpruned grid for atomic number  50.
 FoFCou: FMM=F IPFlag=           0 FMFlag=      100000 FMFlg1=           0
         NFxFlg=           0 DoJE=T BraDBF=F KetDBF=T FulRan=T
         Omega=  0.000000  0.000000  1.000000  0.000000  0.000000 ICntrl=     500 IOpCl=  0
         NMat0=    1 NMatS0=    1 NMatT0=    0 NMatD0=    1 NMtDS0=    0 NMtDT0=    0
         I1Cent=           4 NGrid=           0.
 Petite list used in FoFCou.
 Requested convergence on RMS density matrix=1.00D-08 within 128 cycles.
 Requested convergence on MAX density matrix=1.00D-06.
 Requested convergence on             energy=1.00D-06.
 No special actions if energy rises.
 Keep R1 ints in memory in canonical form, NReq=2397822.
 SCF Done:  E(RHF) =  -196.766988988     A.U. after   13 cycles
             Convg  =    0.4351D-08             -V/T =  2.0706
   1 Symmetry operations used in ECPInt.
 ECPInt:  NShTT=     630 NPrTT=    3262 LenC2=     620 LenP2D=    2672.
 LDataN:  DoStor=T MaxTD1= 5 Len=  102
 Calling FoFJK, ICntrl=      2127 FMM=F ISym2X=0 I1Cent= 0 IOpClX= 0 NMat=1 NMatS=1 NMatT=0.
 ***** Axes restored to original set *****
 -------------------------------------------------------------------
 Center     Atomic                   Forces (Hartrees/Bohr)
 Number     Number              X              Y              Z
 -------------------------------------------------------------------
      1        6           0.004705369   -0.036186444   -0.001251392
      2        6          -0.000921028    0.011956638   -0.003033288
      3        1          -0.002334123   -0.001935990    0.001428030
      4        1          -0.000325519    0.000204224    0.002937626
      5        1          -0.000360210   -0.000474631    0.007070227
      6       50          -0.003726126    0.010474290    0.005893363
      7       50           0.001915302   -0.004566576   -0.014825826
      8       35           0.002756061    0.008509492    0.000548315
      9        9          -0.004564572    0.010922461    0.000269789
     10        1           0.002854844    0.001096536    0.000963157
 -------------------------------------------------------------------
 Cartesian Forces:  Max     0.036186444 RMS     0.008543968

 GradGradGradGradGradGradGradGradGradGradGradGradGradGradGradGradGradGrad
 Berny optimization.
 Using GEDIIS/GDIIS optimizer.
 Internal  Forces:  Max     0.015646782 RMS     0.005950202
 Search for a local minimum.
 Step number   2 out of a maximum of   43
 All quantities printed in internal units (Hartrees-Bohrs-Radians)
 Mixed Optimization -- RFO/linear search
 Update second derivatives using D2CorX and points    1    2
 DE= -6.53D-03 DEPred=-6.80D-03 R= 9.60D-01
 SS=  1.41D+00  RLast= 2.99D-01 DXNew= 5.0454D-01 8.9614D-01
 Trust test= 9.60D-01 RLast= 2.99D-01 DXMaxT set to 5.05D-01
 Use linear search instead of GDIIS.
 Linear search step of   0.597 exceeds DXMaxT=   0.505 but not scaled.
 Quartic linear search produced a step of  2.00000.
 Iteration  1 RMS(Cart)=  0.07697764 RMS(Int)=  0.04891000
 Iteration  2 RMS(Cart)=  0.06560917 RMS(Int)=  0.01740465
 Iteration  3 RMS(Cart)=  0.00475565 RMS(Int)=  0.01675777
 Iteration  4 RMS(Cart)=  0.00016668 RMS(Int)=  0.01675752
 Iteration  5 RMS(Cart)=  0.00001111 RMS(Int)=  0.01675752
 Iteration  6 RMS(Cart)=  0.00000077 RMS(Int)=  0.01675752
 Variable       Old X    -DE/DX   Delta X   Delta X   Delta X     New X
                                 (Linear)    (Quad)   (Total)
    R1        2.51730  -0.01565  -0.03129   0.00000  -0.03129   2.48601
    R2        3.62903   0.00547   0.03930   0.00000   0.03930   3.66833
    R3        2.55953   0.01103   0.01679   0.00000   0.01679   2.57632
    R4        3.98068   0.00318   0.02374   0.00000   0.02374   4.00441
    R5        2.02377   0.00140   0.00353   0.00000   0.00353   2.02731
    R6        3.19765  -0.00052  -0.00537   0.00000  -0.00537   3.19227
    R7        3.18683   0.00044  -0.00221   0.00000  -0.00221   3.18462
    R8        3.19005   0.00101   0.00233   0.00000   0.00233   3.19238
    R9        4.85657   0.00454   0.01793   0.00000   0.01793   4.87449
    A1        2.14637   0.01349   0.05234   0.00000   0.05234   2.19870
    A2        2.14238  -0.00124  -0.00784   0.00000  -0.00785   2.13453
    A3        1.99444  -0.01225  -0.04450   0.00000  -0.04451   1.94993
    A4        2.16608  -0.00048  -0.00127   0.00000  -0.00128   2.16480
    A5        2.06083  -0.00252  -0.01809   0.00000  -0.01811   2.04272
    A6        2.05627   0.00299   0.01933   0.00000   0.01931   2.07558
    A7        1.89228   0.00818   0.04875   0.00000   0.04844   1.94073
    A8        2.16298  -0.00983  -0.03061   0.00000  -0.03097   2.13201
    A9        2.12786   0.00014   0.00326   0.00000   0.00276   2.13062
   A10        2.02930  -0.00027  -0.02015   0.00000  -0.08110   1.94820
   A11        2.10002  -0.00180  -0.02521   0.00000  -0.07210   2.02792
   A12        2.12632  -0.00083  -0.00974   0.00000  -0.05590   2.07042
    D1        3.13839  -0.00077  -0.00640   0.00000  -0.00632   3.13207
    D2        0.00167  -0.00011   0.00335   0.00000   0.00328   0.00495
    D3       -0.00052  -0.00045  -0.00104   0.00000  -0.00097  -0.00149
    D4       -3.13724   0.00022   0.00870   0.00000   0.00863  -3.12862
    D5        0.46859   0.00113  -0.03362   0.00000  -0.03380   0.43479
    D6       -3.13392  -0.00134   0.01535   0.00000   0.01567  -3.11825
    D7       -2.67787   0.00045  -0.04334   0.00000  -0.04366  -2.72153
    D8        0.00281  -0.00202   0.00563   0.00000   0.00580   0.00862
    D9        3.06015  -0.00328  -0.16288   0.00000  -0.14526   2.91490
   D10        0.17793   0.01015   0.35585   0.00000   0.33854   0.51646
   D11       -0.60174  -0.00462  -0.09794   0.00000  -0.08062  -0.68236
   D12        2.79922   0.00882   0.42080   0.00000   0.40317  -3.08079
         Item               Value     Threshold  Converged?
 Maximum Force            0.015647     0.000450     NO 
 RMS     Force            0.005950     0.000300     NO 
 Maximum Displacement     0.429559     0.001800     NO 
 RMS     Displacement     0.127087     0.001200     NO 
 Predicted change in Energy=-7.644491D-03
 GradGradGradGradGradGradGradGradGradGradGradGradGradGradGradGradGradGrad

                          Input orientation:                          
 ---------------------------------------------------------------------
 Center     Atomic      Atomic             Coordinates (Angstroms)
 Number     Number       Type             X           Y           Z
 ---------------------------------------------------------------------
      1          6           0        2.278711    2.918705    0.017598
      2          6           0        1.964354    1.646187   -0.094300
      3          1           0       -1.102455    2.098097   -0.662567
      4          1           0       -2.149065   -2.050957    0.028225
      5          1           0        0.544501   -2.710337    0.347556
      6         50           0       -0.023940    0.914026   -0.125495
      7         50           0       -0.557175   -1.603870   -0.297336
      8         35           0        4.076564    3.649129    0.067150
      9          9           0        1.333960    3.895885    0.123576
     10          1           0        2.775665    0.947348   -0.159931
 ---------------------------------------------------------------------
                    Distance matrix (angstroms):
                    1          2          3          4          5
     1  C    0.000000
     2  C    1.315539   0.000000
     3  H    3.545180   3.151581   0.000000
     4  H    6.656039   5.532098   4.334425   0.000000
     5  H    5.899362   4.603317   5.182070   2.791425   0.000000
     6  Sn   3.056373   2.119044   1.689279   3.651151   3.699042
     7  Sn   5.347440   4.118519   3.759692   1.685227   1.689333
     8  Br   1.941198   2.915351   5.455311   8.441027   7.279897
     9  F    1.363330   2.346488   3.128287   6.892423   6.656996
    10  H    2.040766   1.072804   4.076355   5.768726   4.314429
                    6          7          8          9         10
     6  Sn   0.000000
     7  Sn   2.579470   0.000000
     8  Br   4.932751   7.014155   0.000000
     9  F    3.285942   5.831026   2.754260   0.000000
    10  H    2.800015   4.199453   3.007245   3.294353   0.000000
 Stoichiometry    C2H4BrFSn2
 Framework group  C1[X(C2H4BrFSn2)]
 Deg. of freedom    24
 Full point group                 C1      NOp   1
 Largest Abelian subgroup         C1      NOp   1
 Largest concise Abelian subgroup C1      NOp   1
                         Standard orientation:                         
 ---------------------------------------------------------------------
 Center     Atomic      Atomic             Coordinates (Angstroms)
 Number     Number       Type             X           Y           Z
 ---------------------------------------------------------------------
      1          6           0        2.358192    0.252708    0.009549
      2          6           0        1.181310   -0.333754   -0.031095
      3          1           0       -0.489187    2.284035   -0.568766
      4          1           0       -4.287117    0.409730    0.353158
      5          1           0       -3.028608   -2.063003    0.659424
      6         50           0       -0.664281    0.706659    0.009932
      7         50           0       -2.932969   -0.520396   -0.022531
      8         35           0        4.080096   -0.643351   -0.009764
      9          9           0        2.495031    1.607254    0.081306
     10          1           0        1.171790   -1.405633   -0.074616
 ---------------------------------------------------------------------
 Rotational constants (GHZ):      2.6959100      0.1935399      0.1807131
 Standard basis: LANL2DZ (5D, 7F)
 There are    59 symmetry adapted basis functions of A   symmetry.
 Integral buffers will be    131072 words long.
 Raffenetti 1 integral format.
 Two-electron integral symmetry is turned on.
    59 basis functions,   127 primitive gaussians,    59 cartesian basis functions
    20 alpha electrons       20 beta electrons
       nuclear repulsion energy       135.2923605417 Hartrees.
 NAtoms=   10 NActive=   10 NUniq=   10 SFac= 7.50D-01 NAtFMM=   80 NAOKFM=F Big=F
 One-electron integrals computed using PRISM.
   1 Symmetry operations used in ECPInt.
 ECPInt:  NShTT=     630 NPrTT=    3262 LenC2=     620 LenP2D=    2674.
 LDataN:  DoStor=T MaxTD1= 4 Len=   56
 NBasis=    59 RedAO= T  NBF=    59
 NBsUse=    59 1.00D-06 NBFU=    59
 Initial guess read from the read-write file.
 B after Tr=     0.000000    0.000000    0.000000
         Rot=    1.000000    0.000000    0.000000    0.000000 Ang=   0.00 deg.
 Initial guess orbital symmetries:
       Occupied  (A) (A) (A) (A) (A) (A) (A) (A) (A) (A) (A) (A)
                 (A) (A) (A) (A) (A) (A) (A) (A)
       Virtual   (A) (A) (A) (A) (A) (A) (A) (A) (A) (A) (A) (A)
                 (A) (A) (A) (A) (A) (A) (A) (A) (A) (A) (A) (A)
                 (A) (A) (A) (A) (A) (A) (A) (A) (A) (A) (A) (A)
                 (A) (A) (A)
 Harris functional with IExCor=  205 diagonalized for initial guess.
 ExpMin= 6.30D-02 ExpMax= 1.00D+04 ExpMxC= 3.50D+02 IAcc=2 IRadAn=         0 AccDes= 0.00D+00
 HarFok:  IExCor=  205 AccDes= 0.00D+00 IRadAn=         0 IDoV= 1
 ScaDFX=  1.000000  1.000000  1.000000  1.000000
 Defaulting to unpruned grid for atomic number  50.
 Defaulting to unpruned grid for atomic number  50.
 Defaulting to unpruned grid for atomic number  50.
 Defaulting to unpruned grid for atomic number  50.
 Defaulting to unpruned grid for atomic number  50.
 Defaulting to unpruned grid for atomic number  50.
 Defaulting to unpruned grid for atomic number  50.
 Defaulting to unpruned grid for atomic number  50.
 Defaulting to unpruned grid for atomic number  50.
 Defaulting to unpruned grid for atomic number  50.
 Defaulting to unpruned grid for atomic number  50.
 Defaulting to unpruned grid for atomic number  50.
 Defaulting to unpruned grid for atomic number  50.
 Defaulting to unpruned grid for atomic number  50.
 Defaulting to unpruned grid for atomic number  50.
 Defaulting to unpruned grid for atomic number  50.
 Defaulting to unpruned grid for atomic number  50.
 Defaulting to unpruned grid for atomic number  50.
 Defaulting to unpruned grid for atomic number  50.
 Defaulting to unpruned grid for atomic number  50.
 Defaulting to unpruned grid for atomic number  50.
 Defaulting to unpruned grid for atomic number  50.
 Defaulting to unpruned grid for atomic number  50.
 Defaulting to unpruned grid for atomic number  50.
 FoFCou: FMM=F IPFlag=           0 FMFlag=      100000 FMFlg1=           0
         NFxFlg=           0 DoJE=T BraDBF=F KetDBF=T FulRan=T
         Omega=  0.000000  0.000000  1.000000  0.000000  0.000000 ICntrl=     500 IOpCl=  0
         NMat0=    1 NMatS0=    1 NMatT0=    0 NMatD0=    1 NMtDS0=    0 NMtDT0=    0
         I1Cent=           4 NGrid=           0.
 Petite list used in FoFCou.
 Requested convergence on RMS density matrix=1.00D-08 within 128 cycles.
 Requested convergence on MAX density matrix=1.00D-06.
 Requested convergence on             energy=1.00D-06.
 No special actions if energy rises.
 Keep R1 ints in memory in canonical form, NReq=2397822.
 SCF Done:  E(RHF) =  -196.774612254     A.U. after   16 cycles
             Convg  =    0.5477D-08             -V/T =  2.0705
   1 Symmetry operations used in ECPInt.
 ECPInt:  NShTT=     630 NPrTT=    3262 LenC2=     620 LenP2D=    2674.
 LDataN:  DoStor=T MaxTD1= 5 Len=  102
 Calling FoFJK, ICntrl=      2127 FMM=F ISym2X=0 I1Cent= 0 IOpClX= 0 NMat=1 NMatS=1 NMatT=0.
 ***** Axes restored to original set *****
 -------------------------------------------------------------------
 Center     Atomic                   Forces (Hartrees/Bohr)
 Number     Number              X              Y              Z
 -------------------------------------------------------------------
      1        6           0.008982471   -0.003360968    0.000029768
      2        6          -0.000968152   -0.004608735   -0.006877538
      3        1           0.000376425    0.000449703   -0.004098380
      4        1          -0.003407598   -0.000015538    0.002331511
      5        1           0.001574466   -0.000601508    0.003987589
      6       50           0.000077880    0.011372983    0.015800905
      7       50           0.001235595   -0.010071500   -0.012536308
      8       35          -0.004115079    0.000703828    0.000694958
      9        9          -0.003515924    0.007244038    0.000088689
     10        1          -0.000240085   -0.001112302    0.000578805
 -------------------------------------------------------------------
 Cartesian Forces:  Max     0.015800905 RMS     0.005591417

 GradGradGradGradGradGradGradGradGradGradGradGradGradGradGradGradGradGrad
 Berny optimization.
 Using GEDIIS/GDIIS optimizer.
 Internal  Forces:  Max     0.010971105 RMS     0.003844758
 Search for a local minimum.
 Step number   3 out of a maximum of   43
 All quantities printed in internal units (Hartrees-Bohrs-Radians)
 Mixed Optimization -- RFO/linear search
 Update second derivatives using D2CorX and points    2    3
 Use linear search instead of GDIIS.
     Eigenvalues ---    0.00230   0.00282   0.01131   0.01523   0.01812
     Eigenvalues ---    0.02876   0.02889   0.09999   0.13089   0.13126
     Eigenvalues ---    0.13283   0.14084   0.15207   0.15695   0.16014
     Eigenvalues ---    0.16386   0.18833   0.19381   0.22001   0.23441
     Eigenvalues ---    0.25128   0.37210   0.52545   0.585041000.00000
     Eigenvalues --- 1000.000001000.000001000.000001000.000001000.00000
     Eigenvalues --- 1000.000001000.000001000.00000
 RFO step:  Lambda=-1.02150562D-02 EMin= 2.29642263D-03
 Quartic linear search produced a step of  0.42172.
 Maximum step size (   0.505) exceeded in Quadratic search.
    -- Step size scaled by   0.794
 Iteration  1 RMS(Cart)=  0.07885262 RMS(Int)=  0.03633450
 Iteration  2 RMS(Cart)=  0.05062451 RMS(Int)=  0.01162859
 Iteration  3 RMS(Cart)=  0.00334061 RMS(Int)=  0.01137206
 Iteration  4 RMS(Cart)=  0.00011689 RMS(Int)=  0.01137192
 Iteration  5 RMS(Cart)=  0.00000570 RMS(Int)=  0.01137192
 Iteration  6 RMS(Cart)=  0.00000029 RMS(Int)=  0.01137192
 Variable       Old X    -DE/DX   Delta X   Delta X   Delta X     New X
                                 (Linear)    (Quad)   (Total)
    R1        2.48601   0.00483  -0.01320  -0.01334  -0.02654   2.45947
    R2        3.66833  -0.00353   0.01658   0.01021   0.02678   3.69511
    R3        2.57632   0.00764   0.00708   0.02200   0.02909   2.60541
    R4        4.00441  -0.00034   0.01001   0.01302   0.02304   4.02745
    R5        2.02731   0.00051   0.00149   0.00337   0.00486   2.03216
    R6        3.19227   0.00138  -0.00227   0.00536   0.00309   3.19537
    R7        3.18462   0.00367  -0.00093   0.02073   0.01979   3.20441
    R8        3.19238   0.00294   0.00098   0.01882   0.01980   3.21218
    R9        4.87449   0.01097   0.00756   0.08596   0.09352   4.96801
    A1        2.19870   0.00340   0.02207   0.04432   0.06639   2.26509
    A2        2.13453   0.00149  -0.00331  -0.00068  -0.00399   2.13053
    A3        1.94993  -0.00489  -0.01877  -0.04368  -0.06245   1.88748
    A4        2.16480  -0.00031  -0.00054  -0.00174  -0.00246   2.16234
    A5        2.04272   0.00113  -0.00764  -0.00609  -0.01389   2.02883
    A6        2.07558  -0.00084   0.00814   0.00745   0.01541   2.09099
    A7        1.94073   0.00077   0.02043  -0.01681  -0.01273   1.92800
    A8        2.13201  -0.00499  -0.01306  -0.06438  -0.09067   2.04134
    A9        2.13062   0.00131   0.00116  -0.03835  -0.05139   2.07924
   A10        1.94820   0.00135  -0.03420  -0.01947  -0.09390   1.85430
   A11        2.02792  -0.00271  -0.03041  -0.04033  -0.09347   1.93444
   A12        2.07042  -0.00412  -0.02357  -0.03447  -0.07960   1.99082
    D1        3.13207  -0.00132  -0.00267  -0.03291  -0.03542   3.09666
    D2        0.00495  -0.00040   0.00138  -0.00204  -0.00083   0.00412
    D3       -0.00149  -0.00117  -0.00041  -0.02776  -0.02801  -0.02950
    D4       -3.12862  -0.00025   0.00364   0.00311   0.00658  -3.12203
    D5        0.43479   0.00331  -0.01425   0.13764   0.12229   0.55708
    D6       -3.11825  -0.00330   0.00661  -0.16184  -0.15382   3.01112
    D7       -2.72153   0.00239  -0.01841   0.10613   0.08630  -2.63523
    D8        0.00862  -0.00422   0.00245  -0.19336  -0.18980  -0.18118
    D9        2.91490   0.00135  -0.06126   0.15049   0.10101   3.01591
   D10        0.51646   0.00806   0.14277   0.28411   0.40764   0.92411
   D11       -0.68236  -0.00633  -0.03400  -0.17727  -0.19203  -0.87439
   D12       -3.08079   0.00038   0.17003  -0.04365   0.11460  -2.96619
         Item               Value     Threshold  Converged?
 Maximum Force            0.010971     0.000450     NO 
 RMS     Force            0.003845     0.000300     NO 
 Maximum Displacement     0.323493     0.001800     NO 
 RMS     Displacement     0.116105     0.001200     NO 
 Predicted change in Energy=-6.099489D-03
 GradGradGradGradGradGradGradGradGradGradGradGradGradGradGradGradGradGrad

                          Input orientation:                          
 ---------------------------------------------------------------------
 Center     Atomic      Atomic             Coordinates (Angstroms)
 Number     Number       Type             X           Y           Z
 ---------------------------------------------------------------------
      1          6           0        2.292686    2.877834   -0.003694
      2          6           0        1.948287    1.624902   -0.077469
      3          1           0       -1.122706    2.082692   -0.607463
      4          1           0       -2.093565   -2.033296   -0.106102
      5          1           0        0.480698   -2.662166    0.489697
      6         50           0       -0.064946    0.936511    0.045690
      7         50           0       -0.484282   -1.613531   -0.436878
      8         35           0        4.071264    3.689970   -0.027448
      9          9           0        1.361959    3.886256    0.129369
     10          1           0        2.751725    0.915042   -0.161227
 ---------------------------------------------------------------------
                    Distance matrix (angstroms):
                    1          2          3          4          5
     1  C    0.000000
     2  C    1.301497   0.000000
     3  H    3.558326   3.149835   0.000000
     4  H    6.585506   5.451587   4.258555   0.000000
     5  H    5.849645   4.566667   5.127216   2.716116   0.000000
     6  Sn   3.054440   2.131234   1.690915   3.599734   3.666790
     7  Sn   5.298260   4.066204   3.754830   1.695702   1.699813
     8  Br   1.955369   2.962101   5.467822   8.412317   7.315001
     9  F    1.378721   2.345269   3.157423   6.858367   6.617272
    10  H    2.021902   1.075374   4.071086   5.672087   4.286920
                    6          7          8          9         10
     6  Sn   0.000000
     7  Sn   2.628960   0.000000
     8  Br   4.969419   7.003410   0.000000
     9  F    3.277813   5.828971   2.720929   0.000000
    10  H    2.824343   4.115994   3.075599   3.293025   0.000000
 Stoichiometry    C2H4BrFSn2
 Framework group  C1[X(C2H4BrFSn2)]
 Deg. of freedom    24
 Full point group                 C1      NOp   1
 Largest Abelian subgroup         C1      NOp   1
 Largest concise Abelian subgroup C1      NOp   1
                         Standard orientation:                         
 ---------------------------------------------------------------------
 Center     Atomic      Atomic             Coordinates (Angstroms)
 Number     Number       Type             X           Y           Z
 ---------------------------------------------------------------------
      1          6           0        2.323218    0.193954   -0.027726
      2          6           0        1.138901   -0.340972    0.043976
      3          1           0       -0.505143    2.206425   -0.810043
      4          1           0       -4.254525    0.442661    0.173101
      5          1           0       -3.056378   -1.822873    1.072590
      6         50           0       -0.671894    0.782155    0.085973
      7         50           0       -2.919023   -0.573225   -0.071471
      8         35           0        4.083611   -0.657015   -0.009338
      9          9           0        2.506368    1.557474   -0.117956
     10          1           0        1.105476   -1.412364    0.130180
 ---------------------------------------------------------------------
 Rotational constants (GHZ):      2.4418743      0.1939880      0.1801565
 Standard basis: LANL2DZ (5D, 7F)
 There are    59 symmetry adapted basis functions of A   symmetry.
 Integral buffers will be    131072 words long.
 Raffenetti 1 integral format.
 Two-electron integral symmetry is turned on.
    59 basis functions,   127 primitive gaussians,    59 cartesian basis functions
    20 alpha electrons       20 beta electrons
       nuclear repulsion energy       135.1356674029 Hartrees.
 NAtoms=   10 NActive=   10 NUniq=   10 SFac= 7.50D-01 NAtFMM=   80 NAOKFM=F Big=F
 One-electron integrals computed using PRISM.
   1 Symmetry operations used in ECPInt.
 ECPInt:  NShTT=     630 NPrTT=    3262 LenC2=     620 LenP2D=    2678.
 LDataN:  DoStor=T MaxTD1= 4 Len=   56
 NBasis=    59 RedAO= T  NBF=    59
 NBsUse=    59 1.00D-06 NBFU=    59
 Initial guess read from the read-write file.
 B after Tr=     0.000000    0.000000    0.000000
         Rot=    1.000000    0.000000    0.000000    0.000000 Ang=   0.00 deg.
 Initial guess orbital symmetries:
       Occupied  (A) (A) (A) (A) (A) (A) (A) (A) (A) (A) (A) (A)
                 (A) (A) (A) (A) (A) (A) (A) (A)
       Virtual   (A) (A) (A) (A) (A) (A) (A) (A) (A) (A) (A) (A)
                 (A) (A) (A) (A) (A) (A) (A) (A) (A) (A) (A) (A)
                 (A) (A) (A) (A) (A) (A) (A) (A) (A) (A) (A) (A)
                 (A) (A) (A)
 Harris functional with IExCor=  205 diagonalized for initial guess.
 ExpMin= 6.30D-02 ExpMax= 1.00D+04 ExpMxC= 3.50D+02 IAcc=2 IRadAn=         0 AccDes= 0.00D+00
 HarFok:  IExCor=  205 AccDes= 0.00D+00 IRadAn=         0 IDoV= 1
 ScaDFX=  1.000000  1.000000  1.000000  1.000000
 Defaulting to unpruned grid for atomic number  50.
 Defaulting to unpruned grid for atomic number  50.
 Defaulting to unpruned grid for atomic number  50.
 Defaulting to unpruned grid for atomic number  50.
 Defaulting to unpruned grid for atomic number  50.
 Defaulting to unpruned grid for atomic number  50.
 Defaulting to unpruned grid for atomic number  50.
 Defaulting to unpruned grid for atomic number  50.
 Defaulting to unpruned grid for atomic number  50.
 Defaulting to unpruned grid for atomic number  50.
 Defaulting to unpruned grid for atomic number  50.
 Defaulting to unpruned grid for atomic number  50.
 Defaulting to unpruned grid for atomic number  50.
 Defaulting to unpruned grid for atomic number  50.
 Defaulting to unpruned grid for atomic number  50.
 Defaulting to unpruned grid for atomic number  50.
 Defaulting to unpruned grid for atomic number  50.
 Defaulting to unpruned grid for atomic number  50.
 Defaulting to unpruned grid for atomic number  50.
 Defaulting to unpruned grid for atomic number  50.
 Defaulting to unpruned grid for atomic number  50.
 Defaulting to unpruned grid for atomic number  50.
 Defaulting to unpruned grid for atomic number  50.
 Defaulting to unpruned grid for atomic number  50.
 FoFCou: FMM=F IPFlag=           0 FMFlag=      100000 FMFlg1=           0
         NFxFlg=           0 DoJE=T BraDBF=F KetDBF=T FulRan=T
         Omega=  0.000000  0.000000  1.000000  0.000000  0.000000 ICntrl=     500 IOpCl=  0
         NMat0=    1 NMatS0=    1 NMatT0=    0 NMatD0=    1 NMtDS0=    0 NMtDT0=    0
         I1Cent=           4 NGrid=           0.
 Petite list used in FoFCou.
 Requested convergence on RMS density matrix=1.00D-08 within 128 cycles.
 Requested convergence on MAX density matrix=1.00D-06.
 Requested convergence on             energy=1.00D-06.
 No special actions if energy rises.
 Keep R1 ints in memory in canonical form, NReq=2397822.
 SCF Done:  E(RHF) =  -196.781139414     A.U. after   14 cycles
             Convg  =    0.8363D-08             -V/T =  2.0704
   1 Symmetry operations used in ECPInt.
 ECPInt:  NShTT=     630 NPrTT=    3262 LenC2=     620 LenP2D=    2678.
 LDataN:  DoStor=T MaxTD1= 5 Len=  102
 Calling FoFJK, ICntrl=      2127 FMM=F ISym2X=0 I1Cent= 0 IOpClX= 0 NMat=1 NMatS=1 NMatT=0.
 ***** Axes restored to original set *****
 -------------------------------------------------------------------
 Center     Atomic                   Forces (Hartrees/Bohr)
 Number     Number              X              Y              Z
 -------------------------------------------------------------------
      1        6           0.010034229    0.029676746    0.001877560
      2        6          -0.000043913   -0.018380320   -0.004327873
      3        1           0.000783385    0.003888596   -0.004400060
      4        1          -0.004387068   -0.001248148    0.001904135
      5        1           0.001975995   -0.001733417    0.002166722
      6       50           0.002587352    0.007415095    0.011624606
      7       50           0.000606164   -0.010494107   -0.008755478
      8       35          -0.006242623   -0.006842918   -0.000154881
      9        9          -0.002479501   -0.000123101   -0.000131304
     10        1          -0.002834021   -0.002158426    0.000196573
 -------------------------------------------------------------------
 Cartesian Forces:  Max     0.029676746 RMS     0.007960965

 GradGradGradGradGradGradGradGradGradGradGradGradGradGradGradGradGradGrad
 Berny optimization.
 Using GEDIIS/GDIIS optimizer.
 Internal  Forces:  Max     0.022300712 RMS     0.005579062
 Search for a local minimum.
 Step number   4 out of a maximum of   43
 All quantities printed in internal units (Hartrees-Bohrs-Radians)
 Mixed Optimization -- RFO/linear search
 Update second derivatives using D2CorX and points    3    4
 DE= -6.53D-03 DEPred=-6.10D-03 R= 1.07D+00
 SS=  1.41D+00  RLast= 6.05D-01 DXNew= 8.4853D-01 1.8164D+00
 Trust test= 1.07D+00 RLast= 6.05D-01 DXMaxT set to 8.49D-01
 Use linear search instead of GDIIS.
     Eigenvalues ---    0.00231   0.00358   0.01413   0.01533   0.02481
     Eigenvalues ---    0.02880   0.02912   0.09821   0.13059   0.13180
     Eigenvalues ---    0.13280   0.13942   0.14223   0.15869   0.16178
     Eigenvalues ---    0.16295   0.18287   0.21969   0.22008   0.25035
     Eigenvalues ---    0.25560   0.37228   0.53531   0.615781000.00000
     Eigenvalues --- 1000.000001000.000001000.000001000.000001000.00000
     Eigenvalues --- 1000.000001000.000001000.00000
 RFO step:  Lambda=-4.74085245D-03 EMin= 2.31216497D-03
 Quartic linear search produced a step of  0.23259.
 Iteration  1 RMS(Cart)=  0.07007739 RMS(Int)=  0.00591394
 Iteration  2 RMS(Cart)=  0.00646865 RMS(Int)=  0.00411077
 Iteration  3 RMS(Cart)=  0.00005079 RMS(Int)=  0.00411069
 Iteration  4 RMS(Cart)=  0.00000030 RMS(Int)=  0.00411069
 Variable       Old X    -DE/DX   Delta X   Delta X   Delta X     New X
                                 (Linear)    (Quad)   (Total)
    R1        2.45947   0.02230  -0.00617   0.03061   0.02443   2.48391
    R2        3.69511  -0.00852   0.00623  -0.03535  -0.02912   3.66600
    R3        2.60541   0.00157   0.00677   0.00838   0.01515   2.62055
    R4        4.02745  -0.00063   0.00536   0.00467   0.01003   4.03748
    R5        2.03216  -0.00071   0.00113  -0.00089   0.00024   2.03240
    R6        3.19537   0.00385   0.00072   0.02822   0.02894   3.22431
    R7        3.20441   0.00484   0.00460   0.03460   0.03920   3.24361
    R8        3.21218   0.00337   0.00461   0.02535   0.02995   3.24213
    R9        4.96801   0.01422   0.02175   0.12689   0.14864   5.11665
    A1        2.26509  -0.00731   0.01544  -0.01371   0.00173   2.26682
    A2        2.13053   0.00117  -0.00093   0.00160   0.00067   2.13120
    A3        1.88748   0.00614  -0.01453   0.01216  -0.00237   1.88511
    A4        2.16234   0.00021  -0.00057   0.00065   0.00003   2.16237
    A5        2.02883   0.00345  -0.00323   0.01602   0.01274   2.04158
    A6        2.09099  -0.00367   0.00358  -0.01649  -0.01295   2.07803
    A7        1.92800  -0.00529  -0.00296  -0.04643  -0.06003   1.86797
    A8        2.04134   0.00035  -0.02109  -0.02807  -0.05744   1.98390
    A9        2.07924   0.00209  -0.01195  -0.00784  -0.03099   2.04825
   A10        1.85430  -0.00011  -0.02184  -0.03873  -0.07040   1.78390
   A11        1.93444  -0.00062  -0.02174  -0.02204  -0.04836   1.88608
   A12        1.99082  -0.00149  -0.01851  -0.02094  -0.04365   1.94717
    D1        3.09666  -0.00021  -0.00824   0.00407  -0.00415   3.09251
    D2        0.00412   0.00001  -0.00019   0.00045   0.00023   0.00436
    D3       -0.02950  -0.00038  -0.00651  -0.00003  -0.00653  -0.03603
    D4       -3.12203  -0.00016   0.00153  -0.00366  -0.00215  -3.12418
    D5        0.55708   0.00122   0.02844   0.04272   0.06842   0.62550
    D6        3.01112  -0.00157  -0.03578  -0.06240  -0.09540   2.91572
    D7       -2.63523   0.00119   0.02007   0.04735   0.06464  -2.57058
    D8       -0.18118  -0.00159  -0.04415  -0.05777  -0.09917  -0.28036
    D9        3.01591   0.00163   0.02349   0.02196   0.04754   3.06345
   D10        0.92411   0.00326   0.09481   0.10292   0.19156   1.11567
   D11       -0.87439  -0.00444  -0.04466  -0.10903  -0.14751  -1.02191
   D12       -2.96619  -0.00281   0.02666  -0.02806  -0.00349  -2.96968
         Item               Value     Threshold  Converged?
 Maximum Force            0.022301     0.000450     NO 
 RMS     Force            0.005579     0.000300     NO 
 Maximum Displacement     0.230753     0.001800     NO 
 RMS     Displacement     0.072061     0.001200     NO 
 Predicted change in Energy=-3.281349D-03
 GradGradGradGradGradGradGradGradGradGradGradGradGradGradGradGradGradGrad

                          Input orientation:                          
 ---------------------------------------------------------------------
 Center     Atomic      Atomic             Coordinates (Angstroms)
 Number     Number       Type             X           Y           Z
 ---------------------------------------------------------------------
      1          6           0        2.293957    2.892183   -0.011501
      2          6           0        1.934677    1.628250   -0.044791
      3          1           0       -1.076851    2.111754   -0.599629
      4          1           0       -2.069836   -2.059307   -0.167171
      5          1           0        0.430174   -2.689154    0.531808
      6         50           0       -0.082497    0.956965    0.167799
      7         50           0       -0.440939   -1.639999   -0.509313
      8         35           0        4.061273    3.685973   -0.111214
      9          9           0        1.370538    3.917582    0.125957
     10          1           0        2.720625    0.899966   -0.137468
 ---------------------------------------------------------------------
                    Distance matrix (angstroms):
                    1          2          3          4          5
     1  C    0.000000
     2  C    1.314427   0.000000
     3  H    3.509603   3.100149   0.000000
     4  H    6.601831   5.445106   4.309384   0.000000
     5  H    5.909331   4.608250   5.157519   2.671204   0.000000
     6  Sn   3.069976   2.136542   1.706231   3.627619   3.699935
     7  Sn   5.316780   4.067036   3.806336   1.716446   1.715663
     8  Br   1.939961   2.959906   5.396020   8.402491   7.364821
     9  F    1.386738   2.363991   3.126852   6.902558   6.685654
    10  H    2.041284   1.075499   4.012835   5.630870   4.309974
                    6          7          8          9         10
     6  Sn   0.000000
     7  Sn   2.707616   0.000000
     8  Br   4.969523   6.985297   0.000000
     9  F    3.298229   5.879773   2.711078   0.000000
    10  H    2.820271   4.072491   3.091902   3.316343   0.000000
 Stoichiometry    C2H4BrFSn2
 Framework group  C1[X(C2H4BrFSn2)]
 Deg. of freedom    24
 Full point group                 C1      NOp   1
 Largest Abelian subgroup         C1      NOp   1
 Largest concise Abelian subgroup C1      NOp   1
                         Standard orientation:                         
 ---------------------------------------------------------------------
 Center     Atomic      Atomic             Coordinates (Angstroms)
 Number     Number       Type             X           Y           Z
 ---------------------------------------------------------------------
      1          6           0        2.333123    0.184920   -0.040082
      2          6           0        1.128309   -0.318240    0.111481
      3          1           0       -0.434839    2.117452   -0.999778
      4          1           0       -4.262923    0.443838    0.056432
      5          1           0       -3.130297   -1.658471    1.253422
      6         50           0       -0.658991    0.852332    0.122920
      7         50           0       -2.922465   -0.617569   -0.094475
      8         35           0        4.061839   -0.694736   -0.005541
      9          9           0        2.545276    1.539105   -0.250356
     10          1           0        1.060373   -1.377238    0.286428
 ---------------------------------------------------------------------
 Rotational constants (GHZ):      2.1821404      0.1944448      0.1793758
 Standard basis: LANL2DZ (5D, 7F)
 There are    59 symmetry adapted basis functions of A   symmetry.
 Integral buffers will be    131072 words long.
 Raffenetti 1 integral format.
 Two-electron integral symmetry is turned on.
    59 basis functions,   127 primitive gaussians,    59 cartesian basis functions
    20 alpha electrons       20 beta electrons
       nuclear repulsion energy       134.6666508603 Hartrees.
 NAtoms=   10 NActive=   10 NUniq=   10 SFac= 7.50D-01 NAtFMM=   80 NAOKFM=F Big=F
 One-electron integrals computed using PRISM.
   1 Symmetry operations used in ECPInt.
 ECPInt:  NShTT=     630 NPrTT=    3262 LenC2=     620 LenP2D=    2676.
 LDataN:  DoStor=T MaxTD1= 4 Len=   56
 NBasis=    59 RedAO= T  NBF=    59
 NBsUse=    59 1.00D-06 NBFU=    59
 Initial guess read from the read-write file.
 B after Tr=     0.000000    0.000000    0.000000
         Rot=    1.000000    0.000000    0.000000    0.000000 Ang=   0.00 deg.
 Initial guess orbital symmetries:
       Occupied  (A) (A) (A) (A) (A) (A) (A) (A) (A) (A) (A) (A)
                 (A) (A) (A) (A) (A) (A) (A) (A)
       Virtual   (A) (A) (A) (A) (A) (A) (A) (A) (A) (A) (A) (A)
                 (A) (A) (A) (A) (A) (A) (A) (A) (A) (A) (A) (A)
                 (A) (A) (A) (A) (A) (A) (A) (A) (A) (A) (A) (A)
                 (A) (A) (A)
 Harris functional with IExCor=  205 diagonalized for initial guess.
 ExpMin= 6.30D-02 ExpMax= 1.00D+04 ExpMxC= 3.50D+02 IAcc=2 IRadAn=         0 AccDes= 0.00D+00
 HarFok:  IExCor=  205 AccDes= 0.00D+00 IRadAn=         0 IDoV= 1
 ScaDFX=  1.000000  1.000000  1.000000  1.000000
 Defaulting to unpruned grid for atomic number  50.
 Defaulting to unpruned grid for atomic number  50.
 Defaulting to unpruned grid for atomic number  50.
 Defaulting to unpruned grid for atomic number  50.
 Defaulting to unpruned grid for atomic number  50.
 Defaulting to unpruned grid for atomic number  50.
 Defaulting to unpruned grid for atomic number  50.
 Defaulting to unpruned grid for atomic number  50.
 Defaulting to unpruned grid for atomic number  50.
 Defaulting to unpruned grid for atomic number  50.
 Defaulting to unpruned grid for atomic number  50.
 Defaulting to unpruned grid for atomic number  50.
 Defaulting to unpruned grid for atomic number  50.
 Defaulting to unpruned grid for atomic number  50.
 Defaulting to unpruned grid for atomic number  50.
 Defaulting to unpruned grid for atomic number  50.
 Defaulting to unpruned grid for atomic number  50.
 Defaulting to unpruned grid for atomic number  50.
 Defaulting to unpruned grid for atomic number  50.
 Defaulting to unpruned grid for atomic number  50.
 Defaulting to unpruned grid for atomic number  50.
 Defaulting to unpruned grid for atomic number  50.
 Defaulting to unpruned grid for atomic number  50.
 Defaulting to unpruned grid for atomic number  50.
 FoFCou: FMM=F IPFlag=           0 FMFlag=      100000 FMFlg1=           0
         NFxFlg=           0 DoJE=T BraDBF=F KetDBF=T FulRan=T
         Omega=  0.000000  0.000000  1.000000  0.000000  0.000000 ICntrl=     500 IOpCl=  0
         NMat0=    1 NMatS0=    1 NMatT0=    0 NMatD0=    1 NMtDS0=    0 NMtDT0=    0
         I1Cent=           4 NGrid=           0.
 Petite list used in FoFCou.
 Requested convergence on RMS density matrix=1.00D-08 within 128 cycles.
 Requested convergence on MAX density matrix=1.00D-06.
 Requested convergence on             energy=1.00D-06.
 No special actions if energy rises.
 Keep R1 ints in memory in canonical form, NReq=2397822.
 SCF Done:  E(RHF) =  -196.784737363     A.U. after   13 cycles
             Convg  =    0.6004D-08             -V/T =  2.0707
   1 Symmetry operations used in ECPInt.
 ECPInt:  NShTT=     630 NPrTT=    3262 LenC2=     620 LenP2D=    2676.
 LDataN:  DoStor=T MaxTD1= 5 Len=  102
 Calling FoFJK, ICntrl=      2127 FMM=F ISym2X=0 I1Cent= 0 IOpClX= 0 NMat=1 NMatS=1 NMatT=0.
 ***** Axes restored to original set *****
 -------------------------------------------------------------------
 Center     Atomic                   Forces (Hartrees/Bohr)
 Number     Number              X              Y              Z
 -------------------------------------------------------------------
      1        6           0.000828799    0.013547531    0.000312101
      2        6           0.001939078   -0.000461392   -0.000752190
      3        1           0.001282333    0.002344028   -0.001727371
      4        1          -0.001494501   -0.000711085   -0.000019963
      5        1           0.001596336   -0.000882740    0.000007135
      6       50           0.000493913    0.002910628    0.003792070
      7       50          -0.001832957   -0.006312404   -0.001706057
      8       35          -0.001571712   -0.004803470   -0.000247643
      9        9           0.000007616   -0.005311316   -0.000050523
     10        1          -0.001248906   -0.000319780    0.000392441
 -------------------------------------------------------------------
 Cartesian Forces:  Max     0.013547531 RMS     0.003316094

 GradGradGradGradGradGradGradGradGradGradGradGradGradGradGradGradGradGrad
 Berny optimization.
 Using GEDIIS/GDIIS optimizer.
 Internal  Forces:  Max     0.008242151 RMS     0.002833261
 Search for a local minimum.
 Step number   5 out of a maximum of   43
 All quantities printed in internal units (Hartrees-Bohrs-Radians)
 Mixed Optimization -- RFO/linear search
 Update second derivatives using D2CorX and points    4    5
 DE= -3.60D-03 DEPred=-3.28D-03 R= 1.10D+00
 SS=  1.41D+00  RLast= 3.65D-01 DXNew= 1.4270D+00 1.0946D+00
 Trust test= 1.10D+00 RLast= 3.65D-01 DXMaxT set to 1.09D+00
 Use linear search instead of GDIIS.
     Eigenvalues ---    0.00231   0.00370   0.01546   0.02125   0.02881
     Eigenvalues ---    0.02937   0.03210   0.08470   0.12249   0.13071
     Eigenvalues ---    0.13204   0.13287   0.13797   0.14863   0.16060
     Eigenvalues ---    0.16309   0.17648   0.20827   0.22028   0.23587
     Eigenvalues ---    0.25362   0.37214   0.53233   0.604741000.00000
     Eigenvalues --- 1000.000001000.000001000.000001000.000001000.00000
     Eigenvalues --- 1000.000001000.000001000.00000
 RFO step:  Lambda=-1.87461481D-03 EMin= 2.31320349D-03
 Quartic linear search produced a step of  0.31624.
 Iteration  1 RMS(Cart)=  0.06104027 RMS(Int)=  0.00164554
 Iteration  2 RMS(Cart)=  0.00144872 RMS(Int)=  0.00104152
 Iteration  3 RMS(Cart)=  0.00000155 RMS(Int)=  0.00104152
 Iteration  4 RMS(Cart)=  0.00000000 RMS(Int)=  0.00104152
 Variable       Old X    -DE/DX   Delta X   Delta X   Delta X     New X
                                 (Linear)    (Quad)   (Total)
    R1        2.48391   0.00310   0.00773   0.00194   0.00967   2.49357
    R2        3.66600  -0.00338  -0.00921  -0.01900  -0.02820   3.63779
    R3        2.62055  -0.00394   0.00479  -0.01195  -0.00716   2.61339
    R4        4.03748   0.00082   0.00317   0.00559   0.00876   4.04624
    R5        2.03240  -0.00073   0.00007  -0.00254  -0.00247   2.02993
    R6        3.22431   0.00162   0.00915   0.00866   0.01781   3.24212
    R7        3.24361   0.00159   0.01240   0.00596   0.01836   3.26197
    R8        3.24213   0.00135   0.00947   0.00638   0.01585   3.25799
    R9        5.11665   0.00824   0.04701   0.05791   0.10492   5.22157
    A1        2.26682  -0.00608   0.00055  -0.03132  -0.03078   2.23603
    A2        2.13120  -0.00162   0.00021  -0.00815  -0.00794   2.12325
    A3        1.88511   0.00770  -0.00075   0.03939   0.03864   1.92375
    A4        2.16237   0.00103   0.00001   0.00579   0.00580   2.16817
    A5        2.04158   0.00060   0.00403   0.00277   0.00680   2.04838
    A6        2.07803  -0.00162  -0.00410  -0.00856  -0.01266   2.06538
    A7        1.86797  -0.00464  -0.01898  -0.03433  -0.05589   1.81208
    A8        1.98390   0.00346  -0.01817   0.02173   0.00151   1.98542
    A9        2.04825   0.00117  -0.00980   0.01048  -0.00275   2.04549
   A10        1.78390   0.00047  -0.02226   0.03301   0.00887   1.79278
   A11        1.88608   0.00156  -0.01529   0.04014   0.02392   1.91001
   A12        1.94717   0.00067  -0.01380   0.02939   0.01472   1.96189
    D1        3.09251   0.00016  -0.00131   0.00513   0.00381   3.09632
    D2        0.00436   0.00015   0.00007   0.00540   0.00548   0.00984
    D3       -0.03603   0.00029  -0.00206   0.01318   0.01111  -0.02492
    D4       -3.12418   0.00028  -0.00068   0.01345   0.01278  -3.11140
    D5        0.62550  -0.00029   0.02164  -0.02603  -0.00555   0.61994
    D6        2.91572   0.00007  -0.03017  -0.02392  -0.05294   2.86278
    D7       -2.57058  -0.00022   0.02044  -0.02597  -0.00667  -2.57726
    D8       -0.28036   0.00015  -0.03136  -0.02386  -0.05406  -0.33442
    D9        3.06345   0.00131   0.01503  -0.00550   0.01001   3.07345
   D10        1.11567  -0.00045   0.06058  -0.08189  -0.02238   1.09329
   D11       -1.02191  -0.00104  -0.04665  -0.02494  -0.07053  -1.09243
   D12       -2.96968  -0.00281  -0.00110  -0.10134  -0.10291  -3.07259
         Item               Value     Threshold  Converged?
 Maximum Force            0.008242     0.000450     NO 
 RMS     Force            0.002833     0.000300     NO 
 Maximum Displacement     0.119851     0.001800     NO 
 RMS     Displacement     0.060781     0.001200     NO 
 Predicted change in Energy=-1.215705D-03
 GradGradGradGradGradGradGradGradGradGradGradGradGradGradGradGradGradGrad

                          Input orientation:                          
 ---------------------------------------------------------------------
 Center     Atomic      Atomic             Coordinates (Angstroms)
 Number     Number       Type             X           Y           Z
 ---------------------------------------------------------------------
      1          6           0        2.290572    2.924784   -0.021788
      2          6           0        1.930510    1.655364   -0.010936
      3          1           0       -1.014333    2.159331   -0.608902
      4          1           0       -2.095872   -2.120701   -0.171580
      5          1           0        0.442946   -2.749379    0.477681
      6         50           0       -0.087384    0.977807    0.220699
      7         50           0       -0.465448   -1.661627   -0.504138
      8         35           0        4.066913    3.654952   -0.153054
      9          9           0        1.362064    3.943509    0.090539
     10          1           0        2.711152    0.920172   -0.074045
 ---------------------------------------------------------------------
                    Distance matrix (angstroms):
                    1          2          3          4          5
     1  C    0.000000
     2  C    1.319542   0.000000
     3  H    3.442822   3.046908   0.000000
     4  H    6.687320   5.522338   4.436175   0.000000
     5  H    5.988266   4.674757   5.234478   2.694879   0.000000
     6  Sn   3.082888   2.141176   1.715655   3.713308   3.773488
     7  Sn   5.372474   4.121442   3.861602   1.726160   1.724052
     8  Br   1.925036   2.929636   5.316366   8.446208   7.385555
     9  F    1.382948   2.359881   3.052830   6.985747   6.766787
    10  H    2.048923   1.074193   3.962427   5.688928   4.349112
                    6          7          8          9         10
     6  Sn   0.000000
     7  Sn   2.763138   0.000000
     8  Br   4.956307   6.995110   0.000000
     9  F    3.303518   5.925452   2.731082   0.000000
    10  H    2.814605   4.116000   3.053416   3.314769   0.000000
 Stoichiometry    C2H4BrFSn2
 Framework group  C1[X(C2H4BrFSn2)]
 Deg. of freedom    24
 Full point group                 C1      NOp   1
 Largest Abelian subgroup         C1      NOp   1
 Largest concise Abelian subgroup C1      NOp   1
                         Standard orientation:                         
 ---------------------------------------------------------------------
[...]
     8  35     0.00   0.00   0.00     0.00   0.00   0.00     0.00   0.00   0.00
     9   9     0.00   0.00   0.00     0.00   0.00   0.00     0.00   0.00   0.00
    10   1     0.00   0.00   0.00     0.01   0.00   0.00    -0.07  -0.95   0.28

 -------------------
 - Thermochemistry -
 -------------------
 Temperature   298.150 Kelvin.  Pressure   1.00000 Atm.
 Atom     1 has atomic number  6 and mass  12.00000
 Atom     2 has atomic number  6 and mass  12.00000
 Atom     3 has atomic number  1 and mass   1.00783
 Atom     4 has atomic number  1 and mass   1.00783
 Atom     5 has atomic number  1 and mass   1.00783
 Atom     6 has atomic number 50 and mass 117.90180
 Atom     7 has atomic number 50 and mass 117.90180
 Atom     8 has atomic number 35 and mass  78.91834
 Atom     9 has atomic number  9 and mass  18.99840
 Atom    10 has atomic number  1 and mass   1.00783
 Molecular mass:   361.75164 amu.
 Principal axes and moments of inertia in atomic units:
                           1         2         3
     Eigenvalues --   908.585889337.66043**********
           X            1.00000   0.00025  -0.00255
           Y           -0.00034   0.99937  -0.03536
           Z            0.00254   0.03536   0.99937
 This molecule is an asymmetric top.
 Rotational symmetry number  1.
 Warning -- assumption of classical behavior for rotation
           may cause significant error
 Rotational temperatures (Kelvin)      0.09533     0.00928     0.00852
 Rotational constants (GHZ):           1.98632     0.19328     0.17754
 Zero-point vibrational energy     120241.9 (Joules/Mol)
                                   28.73850 (Kcal/Mol)
 Warning -- explicit consideration of  13 degrees of freedom as
           vibrations may cause significant error
 Vibrational temperatures:     29.31    51.06   148.13   163.14   216.72
          (Kelvin)            259.93   278.03   414.16   498.64   578.01
                              709.98   831.55   862.69   946.33  1134.55
                             1193.15  1392.86  1528.37  1955.77  2582.06
                             2741.45  2746.52  2793.01  4868.10
 
 Zero-point correction=                           0.045798 (Hartree/Particle)
 Thermal correction to Energy=                    0.055674
 Thermal correction to Enthalpy=                  0.056619
 Thermal correction to Gibbs Free Energy=         0.005082
 Sum of electronic and zero-point Energies=           -196.740366
 Sum of electronic and thermal Energies=              -196.730490
 Sum of electronic and thermal Enthalpies=            -196.729545
 Sum of electronic and thermal Free Energies=         -196.781082
 
                     E (Thermal)             CV                S
                      KCal/Mol        Cal/Mol-Kelvin    Cal/Mol-Kelvin
 Total                   34.936             30.662            108.468
 Electronic               0.000              0.000              0.000
 Translational            0.889              2.981             43.551
 Rotational               0.889              2.981             32.822
 Vibrational             33.159             24.701             32.095
 Vibration     1          0.593              1.986              6.598
 Vibration     2          0.594              1.982              5.496
 Vibration     3          0.605              1.947              3.398
 Vibration     4          0.607              1.938              3.210
 Vibration     5          0.618              1.902              2.664
 Vibration     6          0.630              1.866              2.322
 Vibration     7          0.635              1.849              2.197
 Vibration     8          0.685              1.696              1.487
 Vibration     9          0.725              1.582              1.182
 Vibration    10          0.767              1.466              0.956
 Vibration    11          0.849              1.265              0.675
 Vibration    12          0.934              1.079              0.489
 Vibration    13          0.958              1.033              0.450
                       Q            Log10(Q)             Ln(Q)
 Total Bot       0.459637D-02         -2.337585         -5.382488
 Total V=0       0.534385D+19         18.727854         43.122477
 Vib (Bot)       0.511253D-17        -17.291364        -39.814837
 Vib (Bot)    1  0.101698D+02          1.007311          2.319419
 Vib (Bot)    2  0.583250D+01          0.765855          1.763447
 Vib (Bot)    3  0.199215D+01          0.299321          0.689213
 Vib (Bot)    4  0.180498D+01          0.256472          0.590549
 Vib (Bot)    5  0.134591D+01          0.129016          0.297070
 Vib (Bot)    6  0.111149D+01          0.045904          0.105697
 Vib (Bot)    7  0.103448D+01          0.014720          0.033894
 Vib (Bot)    8  0.665115D+00         -0.177103         -0.407795
 Vib (Bot)    9  0.533539D+00         -0.272834         -0.628223
 Vib (Bot)   10  0.443100D+00         -0.353499         -0.813961
 Vib (Bot)   11  0.334990D+00         -0.474968         -1.093655
 Vib (Bot)   12  0.264198D+00         -0.578071         -1.331058
 Vib (Bot)   13  0.249134D+00         -0.603566         -1.389763
 Vib (V=0)       0.594395D+04          3.774075          8.690128
 Vib (V=0)    1  0.106820D+02          1.028655          2.368565
 Vib (V=0)    2  0.635390D+01          0.803040          1.849068
 Vib (V=0)    3  0.255393D+01          0.407210          0.937635
 Vib (V=0)    4  0.237295D+01          0.375289          0.864135
 Vib (V=0)    5  0.193578D+01          0.286857          0.660512
 Vib (V=0)    6  0.171877D+01          0.235218          0.541609
 Vib (V=0)    7  0.164897D+01          0.217214          0.500153
 Vib (V=0)    8  0.133209D+01          0.124534          0.286751
 Vib (V=0)    9  0.123121D+01          0.090331          0.207995
 Vib (V=0)   10  0.116808D+01          0.067474          0.155365
 Vib (V=0)   11  0.110185D+01          0.042121          0.096987
 Vib (V=0)   12  0.106551D+01          0.027557          0.063453
 Vib (V=0)   13  0.105863D+01          0.024744          0.056976
 Electronic      0.100000D+01          0.000000          0.000000
 Translational   0.270440D+09          8.432071         19.415561
 Rotational      0.332436D+07          6.521708         15.016788
 ***** Axes restored to original set *****
 -------------------------------------------------------------------
 Center     Atomic                   Forces (Hartrees/Bohr)
 Number     Number              X              Y              Z
 -------------------------------------------------------------------
      1        6           0.000023790    0.000002208    0.000029867
      2        6           0.000000363    0.000019651    0.000014635
      3        1           0.000007124    0.000016360    0.000013738
      4        1           0.000001354    0.000017819   -0.000003317
      5        1          -0.000002981   -0.000001900   -0.000018313
      6       50          -0.000033273    0.000041871   -0.000021731
      7       50           0.000017832   -0.000082592    0.000021079
      8       35          -0.000001913    0.000002479   -0.000011015
      9        9          -0.000006654    0.000000708   -0.000011839
     10        1          -0.000005643   -0.000016604   -0.000013104
 -------------------------------------------------------------------
 Cartesian Forces:  Max     0.000082592 RMS     0.000022331

 GradGradGradGradGradGradGradGradGradGradGradGradGradGradGradGradGradGrad
 Berny optimization.
 Internal  Forces:  Max     0.000061185 RMS     0.000020965
 Search for a local minimum.
 Step number   1 out of a maximum of    2
 All quantities printed in internal units (Hartrees-Bohrs-Radians)
 Second derivative matrix not updated -- analytic derivatives used.
     Eigenvalues ---    0.00093   0.00583   0.01037   0.01797   0.02741
     Eigenvalues ---    0.03121   0.04121   0.06405   0.06747   0.07103
     Eigenvalues ---    0.08021   0.09572   0.12099   0.12484   0.13763
     Eigenvalues ---    0.13928   0.14234   0.14847   0.17151   0.19697
     Eigenvalues ---    0.28194   0.40368   0.41547   0.727981000.00000
     Eigenvalues --- 1000.000001000.000001000.000001000.000001000.00000
     Eigenvalues --- 1000.000001000.000001000.00000
 Angle between quadratic step and forces=  61.57 degrees.
 Linear search not attempted -- first point.
 Iteration  1 RMS(Cart)=  0.00180061 RMS(Int)=  0.00000117
 Iteration  2 RMS(Cart)=  0.00000169 RMS(Int)=  0.00000008
 Iteration  3 RMS(Cart)=  0.00000000 RMS(Int)=  0.00000008
 Variable       Old X    -DE/DX   Delta X   Delta X   Delta X     New X
                                 (Linear)    (Quad)   (Total)
    R1        2.49141   0.00001   0.00000  -0.00001  -0.00001   2.49140
    R2        3.65237   0.00000   0.00000  -0.00005  -0.00005   3.65231
    R3        2.60099   0.00000   0.00000   0.00006   0.00006   2.60105
    R4        4.05255   0.00001   0.00000   0.00013   0.00013   4.05268
    R5        2.03092   0.00001   0.00000   0.00002   0.00002   2.03095
    R6        3.24207   0.00000   0.00000   0.00002   0.00002   3.24209
    R7        3.25880  -0.00001   0.00000   0.00003   0.00003   3.25883
    R8        3.26088  -0.00001   0.00000  -0.00003  -0.00003   3.26084
    R9        5.27129   0.00006   0.00000   0.00126   0.00126   5.27255
    A1        2.22627   0.00001   0.00000   0.00012   0.00012   2.22640
    A2        2.13582  -0.00001   0.00000  -0.00013  -0.00013   2.13568
    A3        1.92103   0.00000   0.00000   0.00001   0.00001   1.92105
    A4        2.18127   0.00002   0.00000   0.00008   0.00008   2.18136
    A5        2.04048   0.00001   0.00000   0.00011   0.00011   2.04059
    A6        2.06059  -0.00002   0.00000  -0.00018  -0.00018   2.06041
    A7        1.80186  -0.00001   0.00000  -0.00021  -0.00021   1.80166
    A8        1.98200  -0.00003   0.00000  -0.00027  -0.00027   1.98174
    A9        2.05109   0.00004   0.00000   0.00143   0.00143   2.05252
   A10        1.77513   0.00001   0.00000   0.00009   0.00009   1.77522
   A11        1.91018  -0.00004   0.00000  -0.00109  -0.00109   1.90909
   A12        1.92098   0.00004   0.00000  -0.00015  -0.00015   1.92083
    D1        3.10856   0.00002   0.00000   0.00063   0.00063   3.10920
    D2        0.01219   0.00001   0.00000   0.00016   0.00016   0.01234
    D3       -0.01964  -0.00001   0.00000   0.00018   0.00018  -0.01946
    D4       -3.11602  -0.00002   0.00000  -0.00030  -0.00030  -3.11632
    D5        0.53520  -0.00002   0.00000   0.00108   0.00108   0.53628
    D6        2.77526   0.00001   0.00000   0.00257   0.00257   2.77783
    D7       -2.65208  -0.00001   0.00000   0.00157   0.00157  -2.65052
    D8       -0.41202   0.00003   0.00000   0.00306   0.00306  -0.40896
    D9        2.99601   0.00001   0.00000  -0.00056  -0.00056   2.99545
   D10        1.05905  -0.00001   0.00000  -0.00001  -0.00001   1.05903
   D11       -1.18247   0.00001   0.00000   0.00009   0.00009  -1.18238
   D12       -3.11944  -0.00001   0.00000   0.00063   0.00063  -3.11880
         Item               Value     Threshold  Converged?
 Maximum Force            0.000061     0.000450     YES
 RMS     Force            0.000021     0.000300     YES
 Maximum Displacement     0.005257     0.001800     NO 
 RMS     Displacement     0.001801     0.001200     NO 
 Predicted change in Energy=-1.459490D-07
 GradGradGradGradGradGradGradGradGradGradGradGradGradGradGradGradGradGrad

 1\1\GINC-MALLOS25\Freq\RHF\LANL2DZ\C2H4Br1F1Sn2\MARLIN\24-Oct-2024\0\\
 #N Geom=AllCheck Guess=TCheck SCRF=Check GenChk RHF/LANL2DZ Freq\\Titl
 e Card Required\\0,1\C,2.2844134646,2.9221330505,-0.0355482958\C,1.913
 6091805,1.6591198219,0.0384120647\H,-1.0143523733,2.1934284133,-0.5691
 076088\H,-2.081906599,-2.1690087588,-0.134079309\H,0.481133468,-2.7170
 915719,0.4040341448\Sn,-0.1109269243,0.9822367886,0.2434303581\Sn,-0.4
 888066767,-1.6627821013,-0.5578802334\Br,4.083364828,3.6158613738,-0.1
 698424459\F,1.3792360879,3.958675623,-0.0096315264\H,2.6953557842,0.92
 16400908,0.0346900715\\Version=EM64L-G09RevA.01\State=1-A\HF=-196.7861
 639\RMSD=5.321e-10\RMSF=2.233e-05\ZeroPoint=0.0457977\Thermal=0.055674
 3\Dipole=-0.0307496,-0.7258115,0.0273134\DipoleDeriv=1.4448399,0.13810
 53,-0.0174505,0.5007572,1.8455637,0.0919829,-0.1334808,-0.1442615,0.08
 56467,-0.9953857,-0.8059319,-0.0696107,-0.5945363,-1.0371365,0.0504483
 ,0.2418489,0.5561764,-0.2142959,-0.3318626,-0.0939026,-0.0168203,0.101
 6113,-0.2650498,0.1096691,-0.0035701,0.4708886,-0.0257737,-0.4147402,-
 0.1878888,-0.0369466,-0.1274661,-0.2155943,0.1006816,0.1760831,0.41629
 17,-0.0370168,-0.2594732,0.0178411,-0.0183649,0.0812172,-0.2971788,0.1
 524834,-0.0111467,0.5193663,-0.0758057,1.2779758,0.810085,0.1121113,0.
 2046866,0.882627,-0.1549741,-0.2080148,-0.934477,0.2208017,0.5861666,0
 .1327495,0.0482249,0.0122093,0.4108682,-0.2720653,-0.1675785,-0.929723
 2,0.0621726,-0.5596363,-0.3943558,-0.0139431,-0.262964,-0.3003725,-0.0
 0834,0.0131963,-0.0170738,0.0058196,-0.6861821,0.4087863,0.0417526,0.0
 134995,-1.0831341,-0.0439489,0.0600149,0.0476654,-0.1724921,-0.0617022
 ,-0.025488,-0.0289528,0.0709854,0.0594071,-0.025937,0.0326476,0.015147
 ,0.1509436\Polar=124.8016112,48.8180756,205.0166132,10.8973486,43.7484
 402,68.9713665\HyperPolar=-200.8817703,-122.8508018,-126.5765775,-76.7
 338592,-16.9204734,-27.787046,67.2344597,-43.3894801,33.6862822,-7.712
 1947\PG=C01 [X(C2H4Br1F1Sn2)]\NImag=0\\0.42232352,0.07266572,0.8790205
 5,-0.02347490,-0.03300532,0.11893056,-0.13706501,-0.13354192,0.0087860
 1,0.49808212,-0.14813705,-0.59211140,0.02995334,-0.00540113,0.89195347
 ,0.01150404,0.02860788,-0.05770909,-0.02096681,-0.04025909,0.10468474,
 0.00168963,0.00264686,0.00042812,-0.00690463,0.00911945,-0.00611464,0.
 05075525,0.00320590,-0.00249668,-0.00002211,-0.00190261,0.00528982,-0.
 00187922,-0.04675065,0.07826242,-0.00055505,-0.00163672,-0.00035039,0.
 00252011,0.00093682,0.00084866,0.03277507,-0.04544350,0.03489515,0.000
 30045,0.00073262,-0.00010191,-0.00013904,-0.00016481,-0.00014652,0.000
 09491,-0.00019206,0.00021916,0.12081243,-0.00049342,0.00030157,0.00017
 108,0.00049575,-0.00254540,-0.00217823,0.00035054,-0.00078717,-0.00147
 797,0.03352499,0.02254491,-0.00106301,-0.00110285,0.00028557,0.0006903
 1,-0.00149164,0.00065999,0.00017033,-0.00113659,-0.00152520,-0.0262502
 4,-0.01173007,0.01448378,0.00013909,-0.00000317,0.00002189,0.00011220,
 0.00048606,-0.00009342,0.00019374,-0.00022813,-0.00080166,-0.00679612,
 0.00702654,-0.00685595,0.05438339,0.00032289,-0.00003772,0.00014024,-0
 .00005022,-0.00053761,-0.00163141,-0.00026682,-0.00186761,-0.00211152,
 -0.00182310,0.00306318,-0.00125597,-0.04275917,0.05797806,-0.00045077,
 -0.00154955,0.00035557,0.00097832,0.00008918,-0.00199131,-0.00062714,-
 0.00213479,0.00021956,0.00272517,-0.00139226,0.00062848,0.03938904,-0.
 04466158,0.04484635,-0.01088619,-0.01240358,0.00216213,-0.10551991,-0.
 03112416,0.01410458,-0.04328300,0.04802419,-0.03522048,-0.00018092,-0.
 00486390,-0.00294343,0.00020642,0.00278758,-0.00037126,0.17438661,-0.0
 2605246,-0.00104910,0.00170625,-0.02585484,-0.04549079,0.01339721,0.03
 886041,-0.08255176,0.05226363,0.00228009,0.00377268,-0.00322441,0.0002
 2518,0.00195372,-0.00475935,0.00280567,0.17995864,0.00348650,0.0040119
 8,0.00631766,0.00353123,0.00231979,-0.02247494,-0.02740000,0.04182981,
 -0.03757257,0.00141958,0.00693422,0.00065115,0.00146245,0.00883587,0.0
 0181136,0.02264849,-0.04865606,0.06267241,-0.00191934,0.00060115,0.000
 07399,0.00018610,-0.00575330,-0.00215147,0.00065499,0.00242777,0.00016
 100,-0.11407303,-0.03605003,0.03608222,-0.04842160,0.04216451,-0.04227
 680,-0.00926129,-0.00705445,-0.00183329,0.17249614,0.00110114,0.000269
 49,-0.00034643,0.00047710,0.00439488,-0.00139471,0.00024781,0.00406940
 ,-0.00273095,-0.03398595,-0.02613557,0.01937853,0.03517730,-0.06046272
 ,0.05339758,-0.00790019,-0.05963520,-0.01225302,0.00412834,0.13702231,
 0.00190054,0.00309384,-0.00088321,-0.00123578,0.00447390,0.00284151,0.
 00066272,0.00837863,0.00286869,0.02203476,0.00949360,-0.01484220,-0.03
 306988,0.04060908,-0.04575216,0.00036775,-0.00819885,-0.01321256,0.009
 69038,-0.05632669,0.06839350,-0.11333666,-0.05108022,0.00793147,-0.023
 72294,-0.00555913,0.00272166,-0.00060756,-0.00001792,0.00038596,-0.000
 18291,-0.00019737,0.00022123,0.00005154,-0.00012126,0.00051877,0.00479
 831,0.00064586,-0.00142152,-0.00023280,0.00053789,-0.00053929,0.175502
 50,-0.04308605,-0.04730800,0.00398687,-0.03003198,-0.00787853,0.002857
 05,-0.00046220,0.00016398,0.00018525,-0.00009460,-0.00021376,-0.000022
 44,0.00004658,-0.00008015,0.00026263,0.00227714,-0.00094499,-0.0008595
 5,-0.00031427,0.00065705,0.00002814,0.05595287,0.05256571,0.00704329,0
 .00393911,-0.02508584,0.00339605,0.00209007,0.01208281,0.00056470,0.00
 016959,-0.00011955,0.00002781,0.00024222,-0.00007691,0.00001724,0.0001
 5900,0.00013788,-0.00092721,-0.00083998,0.00302139,0.00022165,0.000061
 11,-0.00023886,-0.01259459,-0.00517941,0.01002188,-0.16518217,0.138363
 94,0.00384310,0.00738702,-0.00042637,-0.00136526,0.00000350,-0.0035299
 3,-0.00014869,0.00009528,0.00001280,-0.00011041,0.00002697,-0.00031422
 ,-0.00027037,-0.00465828,0.00452060,-0.00050849,0.00056230,0.00043625,
 0.00087729,-0.04248207,0.01767485,0.00243612,0.20207574,0.10920250,-0.
 21448814,-0.00176900,0.04348411,-0.04879453,0.00102364,-0.00171699,0.0
 0041734,-0.00012456,-0.00035053,-0.00029348,0.00034977,-0.00007486,-0.
 00009767,0.00048156,0.00783331,-0.00061571,-0.00206960,-0.00018081,0.0
 0040373,-0.00066505,0.00049780,0.00238442,-0.00031797,-0.15536035,0.26
 590122,0.00344918,-0.00282474,-0.04133235,-0.00106719,0.00122161,0.003
 23790,-0.00061905,-0.00022998,0.00043041,-0.00000405,-0.00020161,-0.00
 005282,-0.00002084,-0.00017307,-0.00022771,-0.00008001,-0.00002552,-0.
 00390105,-0.00008014,0.00007483,0.00057400,0.00288039,-0.00118579,0.00
 473978,-0.00521350,0.00231714,0.02242631,0.00393668,-0.01798139,0.0003
 3010,-0.23241589,0.18696045,0.00250784,-0.00259683,-0.00103656,0.00066
 457,0.00006897,0.00019410,0.00005897,0.00010437,0.00005980,0.00038502,
 -0.00560174,0.00962394,-0.00138496,0.00000853,-0.00021970,-0.00068848,
 0.00021259,-0.00196234,-0.00018504,0.00217171,-0.00333419,0.00075522,0
 .23411162,0.03127082,-0.02210056,-0.00081492,0.15232575,-0.20427990,0.
 00145687,-0.00202841,-0.00049972,0.00013952,0.00007334,0.00029304,0.00
 023568,0.00010368,0.00008852,0.00026658,-0.00743608,0.00460249,-0.0000
 9343,0.00003108,-0.00058336,-0.00088660,-0.00065851,0.00065427,-0.0003
 2374,-0.00137757,-0.00481718,0.00102713,-0.17230410,0.22664239,-0.0018
 3981,0.00046638,-0.00052849,0.00336776,0.00066602,-0.04218027,0.000159
 88,0.00046818,0.00030525,0.00007625,0.00013901,-0.00021185,-0.00004887
 ,0.00008936,-0.00002802,0.00025945,-0.00166294,0.00268716,0.00011246,0
 .00013973,0.00025128,-0.00010408,-0.00007273,-0.00448257,0.00046021,0.
 00077408,0.01410555,-0.00244325,-0.00100709,0.03008197\\-0.00002379,-0
 .00000221,-0.00002987,-0.00000036,-0.00001965,-0.00001463,-0.00000712,
 -0.00001636,-0.00001374,-0.00000135,-0.00001782,0.00000332,0.00000298,
 0.00000190,0.00001831,0.00003327,-0.00004187,0.00002173,-0.00001783,0.
 00008259,-0.00002108,0.00000191,-0.00000248,0.00001101,0.00000665,-0.0
 0000071,0.00001184,0.00000564,0.00001660,0.00001310\\\@


 THERE IS AN OLD, OLD RECIPE IN MAINE FOR STEWING COOT. PLACE THE
 BIRD IN A KETTLE OF WATER WITH A RED BUILDING BRICK FREE OF MORTAR AND
 BLEMISHES. PARBOIL THE COOT AND BRICK TOGETHER FOR THREE HOURS.
 POUR OFF THE WATER, REFILL THE KETTLE, AND AGAIN PARBOIL FOR THREE HOURS.
 ONCE AGAIN POUR OFF THE WATER, FOR THE LAST TIME ADD FRESH WATER,
 AND LET THE COOT AND BRICK SIMMER TOGETHER OVERNIGHT. IN THE MORNING,
 THROW AWAY THE COOT AND EAT THE BRICK.
 Job cpu time:  0 days  0 hours  0 minutes 55.4 seconds.
 File lengths (MBytes):  RWF=      9 Int=      0 D2E=      0 Chk=      1 Scr=      1
 Normal termination of Gaussian 09 at Thu Oct 24 10:12:33 2024.
