 Entering Gaussian System, Link 0=g09
 Initial command:
 /u/local/G09/g09/l1.exe /tmp1/marlin/22679.mallos00.local/Gau-19273.inp -scrdir=/tmp1/marlin/22679.mallos00.local/
 Entering Link 1 = /u/local/G09/g09/l1.exe PID=     19275.
  
 Copyright (c) 1988,1990,1992,1993,1995,1998,2003,2009, Gaussian, Inc.
                  All Rights Reserved.
  
 This is part of the Gaussian(R) 09 program.  It is based on
 the Gaussian(R) 03 system (copyright 2003, Gaussian, Inc.),
 the Gaussian(R) 98 system (copyright 1998, Gaussian, Inc.),
 the Gaussian(R) 94 system (copyright 1995, Gaussian, Inc.),
 the Gaussian 92(TM) system (copyright 1992, Gaussian, Inc.),
 the Gaussian 90(TM) system (copyright 1990, Gaussian, Inc.),
 the Gaussian 88(TM) system (copyright 1988, Gaussian, Inc.),
 the Gaussian 86(TM) system (copyright 1986, Carnegie Mellon
 University), and the Gaussian 82(TM) system (copyright 1983,
 Carnegie Mellon University). Gaussian is a federally registered
 trademark of Gaussian, Inc.
  
 This software contains proprietary and confidential information,
 including trade secrets, belonging to Gaussian, Inc.
  
 This software is provided under written license and may be
 used, copied, transmitted, or stored only in accord with that
 written license.
  
 The following legend is applicable only to US Government
 contracts under FAR:
  
                    RESTRICTED RIGHTS LEGEND
  
 Use, reproduction and disclosure by the US Government is
 subject to restrictions as set forth in subparagraphs (a)
 and (c) of the Commercial Computer Software - Restricted
 Rights clause in FAR 52.227-19.
  
 Gaussian, Inc.
 340 Quinnipiac St., Bldg. 40, Wallingford CT 06492
  
  
 ---------------------------------------------------------------
 Warning -- This program may not be used in any manner that
 competes with the business of Gaussian, Inc. or will provide
 assistance to any competitor of Gaussian, Inc.  The licensee
 of this program is prohibited from giving any competitor of
 Gaussian, Inc. access to this program.  By using this program,
 the user acknowledges that Gaussian, Inc. is engaged in the
 business of creating and licensing software in the field of
 computational chemistry and represents and warrants to the
 licensee that it is not a competitor of Gaussian, Inc. and that
 it will not use this program in any manner prohibited above.
 ---------------------------------------------------------------
  

 Cite this work as:
 Gaussian 09, Revision A.01,
 M. J. Frisch, G. W. Trucks, H. B. Schlegel, G. E. Scuseria, 
 M. A. Robb, J. R. Cheeseman, G. Scalmani, V. Barone, B. Mennucci, 
 G. A. Petersson, H. Nakatsuji, M. Caricato, X. Li, H. P. Hratchian, 
 A. F. Izmaylov, J. Bloino, G. Zheng, J. L. Sonnenberg, M. Hada, 
 M. Ehara, K. Toyota, R. Fukuda, J. Hasegawa, M. Ishida, T. Nakajima, 
 Y. Honda, O. Kitao, H. Nakai, T. Vreven, J. A. Montgomery, Jr., 
 J. E. Peralta, F. Ogliaro, M. Bearpark, J. J. Heyd, E. Brothers, 
 K. N. Kudin, V. N. Staroverov, R. Kobayashi, J. Normand, 
 K. Raghavachari, A. Rendell, J. C. Burant, S. S. Iyengar, J. Tomasi, 
 M. Cossi, N. Rega, J. M. Millam, M. Klene, J. E. Knox, J. B. Cross, 
 V. Bakken, C. Adamo, J. Jaramillo, R. Gomperts, R. E. Stratmann, 
 O. Yazyev, A. J. Austin, R. Cammi, C. Pomelli, J. W. Ochterski, 
 R. L. Martin, K. Morokuma, V. G. Zakrzewski, G. A. Voth, 
 P. Salvador, J. J. Dannenberg, S. Dapprich, A. D. Daniels, 
 O. Farkas, J. B. Foresman, J. V. Ortiz, J. Cioslowski, 
 and D. J. Fox, Gaussian, Inc., Wallingford CT, 2009.
 
 ******************************************
 Gaussian 09:  EM64L-G09RevA.01  8-May-2009
                24-Oct-2024 
 ******************************************
 %mem=206GB
 %nproc=20
 Will use up to   20 processors via shared memory.
 %chk=4-mp2.chk
 --------------------------------------------
 # opt freq=noraman mp2/lanl2dz geom=allcheck
 --------------------------------------------
 1/18=20,19=15,29=7,38=1/1,3;
 2/9=110,12=2,40=1/2;
 3/5=6,6=3,11=9,14=-4,16=1,25=1,30=1,71=1/1,2,3;
 4//1;
 5/5=2,38=5/2;
 8/6=4,10=1/1;
 9/15=2,16=-3/6;
 10/5=1/2;
 6/7=2,8=2,9=2,10=2/1;
 7/12=2/1,2,3,16;
 1/18=20,19=15/3(2);
 2/9=110/2;
 99//99;
 2/9=110/2;
 3/5=6,6=3,11=9,14=-2,16=1,25=1,30=1,71=1/1,2,3;
 4/5=5,16=3/1;
 5/5=2,38=5/2;
 8/6=4,10=1/1;
 9/15=2,16=-3/6;
 10/5=1/2;
 7/12=2/1,2,3,16;
 1/18=20,19=15/3(-8);
 2/9=110/2;
 6/7=2,8=2,9=2,10=2/1;
 99//99;
 -------------------
 Title Card Required
 -------------------
 Redundant internal coordinates taken from checkpoint file:
 4-mp2.chk
 Charge =  0 Multiplicity = 1
 C,0,2.2844134646,2.9221330505,-0.0355482958
 C,0,1.9136091805,1.6591198219,0.0384120647
 H,0,-1.0143523733,2.1934284133,-0.5691076088
 H,0,-2.081906599,-2.1690087588,-0.134079309
 H,0,0.481133468,-2.7170915719,0.4040341448
 Sn,0,-0.1109269243,0.9822367886,0.2434303581
 Sn,0,-0.4888066767,-1.6627821013,-0.5578802334
 Br,0,4.083364828,3.6158613738,-0.1698424459
 F,0,1.3792360879,3.958675623,-0.0096315264
 H,0,2.6953557842,0.9216400908,0.0346900715
 Recover connectivity data from disk.

 GradGradGradGradGradGradGradGradGradGradGradGradGradGradGradGradGradGrad
 Berny optimization.
 Initialization pass.
                           ----------------------------
                           !    Initial Parameters    !
                           ! (Angstroms and Degrees)  !
 --------------------------                            --------------------------
 ! Name  Definition              Value          Derivative Info.                !
 --------------------------------------------------------------------------------
 ! R1    R(1,2)                  1.3184         estimate D2E/DX2                !
 ! R2    R(1,8)                  1.9327         estimate D2E/DX2                !
 ! R3    R(1,9)                  1.3764         estimate D2E/DX2                !
 ! R4    R(2,6)                  2.1445         estimate D2E/DX2                !
 ! R5    R(2,10)                 1.0747         estimate D2E/DX2                !
 ! R6    R(3,6)                  1.7156         estimate D2E/DX2                !
 ! R7    R(4,7)                  1.7245         estimate D2E/DX2                !
 ! R8    R(5,7)                  1.7256         estimate D2E/DX2                !
 ! R9    R(6,7)                  2.7894         estimate D2E/DX2                !
 ! A1    A(2,1,8)              127.556          estimate D2E/DX2                !
 ! A2    A(2,1,9)              122.3732         estimate D2E/DX2                !
 ! A3    A(8,1,9)              110.0671         estimate D2E/DX2                !
 ! A4    A(1,2,6)              124.9777         estimate D2E/DX2                !
 ! A5    A(1,2,10)             116.9109         estimate D2E/DX2                !
 ! A6    A(6,2,10)             118.063          estimate D2E/DX2                !
 ! A7    A(2,6,3)              103.2392         estimate D2E/DX2                !
 ! A8    A(2,6,7)              113.5605         estimate D2E/DX2                !
 ! A9    A(3,6,7)              117.5185         estimate D2E/DX2                !
 ! A10   A(4,7,5)              101.7077         estimate D2E/DX2                !
 ! A11   A(4,7,6)              109.4451         estimate D2E/DX2                !
 ! A12   A(5,7,6)              110.0642         estimate D2E/DX2                !
 ! D1    D(8,1,2,6)            178.1076         estimate D2E/DX2                !
 ! D2    D(8,1,2,10)             0.6982         estimate D2E/DX2                !
 ! D3    D(9,1,2,6)             -1.1256         estimate D2E/DX2                !
 ! D4    D(9,1,2,10)          -178.535          estimate D2E/DX2                !
 ! D5    D(1,2,6,3)             30.6645         estimate D2E/DX2                !
 ! D6    D(1,2,6,7)            159.0106         estimate D2E/DX2                !
 ! D7    D(10,2,6,3)          -151.9533         estimate D2E/DX2                !
 ! D8    D(10,2,6,7)           -23.6072         estimate D2E/DX2                !
 ! D9    D(2,6,7,4)            171.6589         estimate D2E/DX2                !
 ! D10   D(2,6,7,5)             60.6789         estimate D2E/DX2                !
 ! D11   D(3,6,7,4)            -67.7506         estimate D2E/DX2                !
 ! D12   D(3,6,7,5)           -178.7305         estimate D2E/DX2                !
 --------------------------------------------------------------------------------
 Trust Radius=3.00D-01 FncErr=1.00D-07 GrdErr=1.00D-07
 Number of steps in this run=  43 maximum allowed number of steps= 100.
 GradGradGradGradGradGradGradGradGradGradGradGradGradGradGradGradGradGrad

                          Input orientation:                          
 ---------------------------------------------------------------------
 Center     Atomic      Atomic             Coordinates (Angstroms)
 Number     Number       Type             X           Y           Z
 ---------------------------------------------------------------------
      1          6           0        2.284413    2.922133   -0.035548
      2          6           0        1.913609    1.659120    0.038412
      3          1           0       -1.014352    2.193428   -0.569108
      4          1           0       -2.081907   -2.169009   -0.134079
      5          1           0        0.481133   -2.717092    0.404034
      6         50           0       -0.110927    0.982237    0.243430
      7         50           0       -0.488807   -1.662782   -0.557880
      8         35           0        4.083365    3.615861   -0.169842
      9          9           0        1.379236    3.958676   -0.009632
     10          1           0        2.695356    0.921640    0.034690
 ---------------------------------------------------------------------
                    Distance matrix (angstroms):
                    1          2          3          4          5
     1  C    0.000000
     2  C    1.318396   0.000000
     3  H    3.420168   3.037684   0.000000
     4  H    6.707770   5.536106   4.512181   0.000000
     5  H    5.936826   4.619187   5.224623   2.675656   0.000000
     6  Sn   3.094945   2.144516   1.715628   3.735990   3.749848
     7  Sn   5.383774   4.142728   3.891874   1.724483   1.725582
     8  Br   1.932749   2.929172   5.307490   8.454382   7.308331
     9  F    1.376386   2.361317   3.026281   7.038715   6.748598
    10  H    2.043472   1.074718   3.967865   5.692348   4.275461
                    6          7          8          9         10
     6  Sn   0.000000
     7  Sn   2.789447   0.000000
     8  Br   4.969794   6.994241   0.000000
     9  F    3.338235   5.949029   2.730476   0.000000
    10  H    2.814688   4.143582   3.037636   3.310245   0.000000
 Stoichiometry    C2H4BrFSn2
 Framework group  C1[X(C2H4BrFSn2)]
 Deg. of freedom    24
 Full point group                 C1      NOp   1
 Largest Abelian subgroup         C1      NOp   1
 Largest concise Abelian subgroup C1      NOp   1
                         Standard orientation:                         
 ---------------------------------------------------------------------
 Center     Atomic      Atomic             Coordinates (Angstroms)
 Number     Number       Type             X           Y           Z
 ---------------------------------------------------------------------
      1          6           0        2.367769    0.217573   -0.062358
      2          6           0        1.165045   -0.251618    0.205003
      3          1           0       -0.326857    2.081942   -1.042496
      4          1           0       -4.336827    0.352881    0.093402
      5          1           0       -3.092214   -1.736809    1.208422
      6         50           0       -0.642097    0.902242    0.162623
      7         50           0       -2.946230   -0.644506   -0.119432
      8         35           0        4.046331   -0.738377    0.001767
      9          9           0        2.583723    1.527155   -0.426773
     10          1           0        1.100256   -1.281765    0.504365
 ---------------------------------------------------------------------
 Rotational constants (GHZ):      1.9863188      0.1932755      0.1775398
 Standard basis: LANL2DZ (5D, 7F)
 There are    59 symmetry adapted basis functions of A   symmetry.
 Integral buffers will be    131072 words long.
 Raffenetti 1 integral format.
 Two-electron integral symmetry is turned on.
    59 basis functions,   127 primitive gaussians,    59 cartesian basis functions
    20 alpha electrons       20 beta electrons
       nuclear repulsion energy       134.5037308122 Hartrees.
 NAtoms=   10 NActive=   10 NUniq=   10 SFac= 7.50D-01 NAtFMM=   80 NAOKFM=F Big=F
 One-electron integrals computed using PRISM.
   1 Symmetry operations used in ECPInt.
 ECPInt:  NShTT=     630 NPrTT=    3262 LenC2=     620 LenP2D=    2673.
 LDataN:  DoStor=T MaxTD1= 4 Len=   56
 NBasis=    59 RedAO= T  NBF=    59
 NBsUse=    59 1.00D-06 NBFU=    59
 Harris functional with IExCor=  205 diagonalized for initial guess.
 ExpMin= 6.30D-02 ExpMax= 1.00D+04 ExpMxC= 3.50D+02 IAcc=2 IRadAn=         0 AccDes= 0.00D+00
 HarFok:  IExCor=  205 AccDes= 0.00D+00 IRadAn=         0 IDoV= 1
 ScaDFX=  1.000000  1.000000  1.000000  1.000000
 Defaulting to unpruned grid for atomic number  50.
 Defaulting to unpruned grid for atomic number  50.
 Defaulting to unpruned grid for atomic number  50.
 Defaulting to unpruned grid for atomic number  50.
 Defaulting to unpruned grid for atomic number  50.
 Defaulting to unpruned grid for atomic number  50.
 Defaulting to unpruned grid for atomic number  50.
 Defaulting to unpruned grid for atomic number  50.
 Defaulting to unpruned grid for atomic number  50.
 Defaulting to unpruned grid for atomic number  50.
 Defaulting to unpruned grid for atomic number  50.
 Defaulting to unpruned grid for atomic number  50.
 Defaulting to unpruned grid for atomic number  50.
 Defaulting to unpruned grid for atomic number  50.
 Defaulting to unpruned grid for atomic number  50.
 Defaulting to unpruned grid for atomic number  50.
 Defaulting to unpruned grid for atomic number  50.
 Defaulting to unpruned grid for atomic number  50.
 Defaulting to unpruned grid for atomic number  50.
 Defaulting to unpruned grid for atomic number  50.
 FoFCou: FMM=F IPFlag=           0 FMFlag=      100000 FMFlg1=           0
         NFxFlg=           0 DoJE=T BraDBF=F KetDBF=T FulRan=T
         Omega=  0.000000  0.000000  1.000000  0.000000  0.000000 ICntrl=     500 IOpCl=  0
         NMat0=    1 NMatS0=    1 NMatT0=    0 NMatD0=    1 NMtDS0=    0 NMtDT0=    0
         I1Cent=           4 NGrid=           0.
 Petite list used in FoFCou.
 Initial guess orbital symmetries:
       Occupied  (A) (A) (A) (A) (A) (A) (A) (A) (A) (A) (A) (A)
                 (A) (A) (A) (A) (A) (A) (A) (A)
       Virtual   (A) (A) (A) (A) (A) (A) (A) (A) (A) (A) (A) (A)
                 (A) (A) (A) (A) (A) (A) (A) (A) (A) (A) (A) (A)
                 (A) (A) (A) (A) (A) (A) (A) (A) (A) (A) (A) (A)
                 (A) (A) (A)
 The electronic state of the initial guess is 1-A.
 Requested convergence on RMS density matrix=1.00D-08 within 128 cycles.
 Requested convergence on MAX density matrix=1.00D-06.
 Requested convergence on             energy=1.00D-06.
 No special actions if energy rises.
 Keep R1 ints in memory in canonical form, NReq=2397586.
 SCF Done:  E(RHF) =  -196.786163866     A.U. after   16 cycles
             Convg  =    0.5060D-08             -V/T =  2.0708
 ExpMin= 6.30D-02 ExpMax= 1.00D+04 ExpMxC= 3.50D+02 IAcc=3 IRadAn=         5 AccDes= 0.00D+00
 HarFok:  IExCor=  205 AccDes= 0.00D+00 IRadAn=         5 IDoV=-2
 ScaDFX=  1.000000  1.000000  1.000000  1.000000
 Defaulting to unpruned grid for atomic number  50.
 Defaulting to unpruned grid for atomic number  50.
 Defaulting to unpruned grid for atomic number  50.
 Defaulting to unpruned grid for atomic number  50.
 Defaulting to unpruned grid for atomic number  50.
 Defaulting to unpruned grid for atomic number  50.
 Defaulting to unpruned grid for atomic number  50.
 Defaulting to unpruned grid for atomic number  50.
 Defaulting to unpruned grid for atomic number  50.
 Defaulting to unpruned grid for atomic number  50.
 Defaulting to unpruned grid for atomic number  50.
 Defaulting to unpruned grid for atomic number  50.
 Defaulting to unpruned grid for atomic number  50.
 Defaulting to unpruned grid for atomic number  50.
 Defaulting to unpruned grid for atomic number  50.
 Defaulting to unpruned grid for atomic number  50.
 Defaulting to unpruned grid for atomic number  50.
 Defaulting to unpruned grid for atomic number  50.
 Defaulting to unpruned grid for atomic number  50.
 Defaulting to unpruned grid for atomic number  50.
 Range of M.O.s used for correlation:     4    59
 NBasis=    59 NAE=    20 NBE=    20 NFC=     3 NFV=     0
 NROrb=     56 NOA=    17 NOB=    17 NVA=    39 NVB=    39
 Fully direct method using O(ONN) memory.
 JobTyp=1 Pass  1:  I=   4 to  20 NPSUse= 20 ParTrn=T ParDer=T DoDerP=T.
 Spin components of T(2) and E(2):
     alpha-alpha T2 =       0.2121382977D-01 E2=     -0.4620427778D-01
     alpha-beta  T2 =       0.1608056480D+00 E2=     -0.3148945251D+00
     beta-beta   T2 =       0.2121382977D-01 E2=     -0.4620427778D-01
 ANorm=    0.1096919918D+01
 E2 =    -0.4073030807D+00 EUMP2 =    -0.19719346694656D+03
          IDoAtm=1111111111
          Differentiating once with respect to electric field.
                with respect to dipole field.
          Differentiating once with respect to nuclear coordinates.
          Keep R1 ints in memory in canonical form, NReq=2368185.
          There are     1 degrees of freedom in the 1st order CPHF.  IDoFFX=0.
 LinEq1:  Iter=  0 NonCon=     1 RMS=9.42D-03 Max=8.68D-02
 AX will form     1 AO Fock derivatives at one time.
 LinEq1:  Iter=  1 NonCon=     1 RMS=3.54D-03 Max=2.91D-02
 LinEq1:  Iter=  2 NonCon=     1 RMS=1.16D-03 Max=1.30D-02
 LinEq1:  Iter=  3 NonCon=     1 RMS=2.46D-04 Max=2.19D-03
 LinEq1:  Iter=  4 NonCon=     1 RMS=8.13D-05 Max=6.98D-04
 LinEq1:  Iter=  5 NonCon=     1 RMS=2.49D-05 Max=2.34D-04
 LinEq1:  Iter=  6 NonCon=     1 RMS=7.15D-06 Max=5.45D-05
 LinEq1:  Iter=  7 NonCon=     1 RMS=2.90D-06 Max=2.43D-05
 LinEq1:  Iter=  8 NonCon=     1 RMS=7.51D-07 Max=4.62D-06
 LinEq1:  Iter=  9 NonCon=     1 RMS=2.14D-07 Max=2.05D-06
 LinEq1:  Iter= 10 NonCon=     1 RMS=6.19D-08 Max=6.91D-07
 LinEq1:  Iter= 11 NonCon=     1 RMS=1.06D-08 Max=8.61D-08
 LinEq1:  Iter= 12 NonCon=     1 RMS=2.03D-09 Max=1.82D-08
 LinEq1:  Iter= 13 NonCon=     1 RMS=3.87D-10 Max=3.90D-09
 LinEq1:  Iter= 14 NonCon=     0 RMS=6.56D-11 Max=5.02D-10
 Linear equations converged to 1.000D-10 1.000D-09 after    14 iterations.
 End of Minotr Frequency-dependent properties file   721 does not exist.
 End of Minotr Frequency-dependent properties file   722 does not exist.

 **********************************************************************

            Population analysis using the SCF density.

 **********************************************************************

 Orbital symmetries:
       Occupied  (A) (A) (A) (A) (A) (A) (A) (A) (A) (A) (A) (A)
                 (A) (A) (A) (A) (A) (A) (A) (A)
       Virtual   (A) (A) (A) (A) (A) (A) (A) (A) (A) (A) (A) (A)
                 (A) (A) (A) (A) (A) (A) (A) (A) (A) (A) (A) (A)
                 (A) (A) (A) (A) (A) (A) (A) (A) (A) (A) (A) (A)
                 (A) (A) (A)
 The electronic state is 1-A.
 Alpha  occ. eigenvalues --  -26.32697 -11.41032 -11.26641  -1.64522  -1.11364
 Alpha  occ. eigenvalues --   -1.00979  -0.81547  -0.72539  -0.71079  -0.69529
 Alpha  occ. eigenvalues --   -0.64667  -0.60897  -0.56149  -0.48159  -0.46140
 Alpha  occ. eigenvalues --   -0.44198  -0.43130  -0.39678  -0.39180  -0.28079
 Alpha virt. eigenvalues --   -0.03147   0.08036   0.08657   0.12770   0.13518
 Alpha virt. eigenvalues --    0.16000   0.17911   0.21991   0.27413   0.30221
 Alpha virt. eigenvalues --    0.31541   0.32896   0.34103   0.35558   0.36084
 Alpha virt. eigenvalues --    0.41911   0.46938   0.47802   0.51043   0.56549
 Alpha virt. eigenvalues --    0.59615   0.61075   0.70642   0.71031   0.76400
 Alpha virt. eigenvalues --    0.86300   0.99383   1.16043   1.21179   1.23892
 Alpha virt. eigenvalues --    1.24941   1.27636   1.30349   1.34693   1.46578
 Alpha virt. eigenvalues --    2.32810  12.29251  13.41782  20.13492
          Condensed to atoms (all electrons):
              1          2          3          4          5          6
     1  C    5.182763   0.214265   0.003506  -0.000001   0.000001  -0.055471
     2  C    0.214265   6.007019  -0.032222   0.000066   0.000194   0.182613
     3  H    0.003506  -0.032222   0.843357   0.000019   0.000010   0.365318
     4  H   -0.000001   0.000066   0.000019   0.868405  -0.012325  -0.009293
     5  H    0.000001   0.000194   0.000010  -0.012325   0.873705  -0.010692
     6  Sn  -0.055471   0.182613   0.365318  -0.009293  -0.010692   2.627916
     7  Sn  -0.000353  -0.021007  -0.010442   0.338487   0.337324   0.251063
     8  Br   0.344160  -0.129018  -0.000019   0.000000   0.000000   0.002149
     9  F    0.184101  -0.046959  -0.000338   0.000000   0.000000   0.000816
    10  H   -0.021419   0.381302  -0.000013   0.000000  -0.000001  -0.009223
              7          8          9         10
     1  C   -0.000353   0.344160   0.184101  -0.021419
     2  C   -0.021007  -0.129018  -0.046959   0.381302
     3  H   -0.010442  -0.000019  -0.000338  -0.000013
     4  H    0.338487   0.000000   0.000000   0.000000
     5  H    0.337324   0.000000   0.000000  -0.000001
     6  Sn   0.251063   0.002149   0.000816  -0.009223
     7  Sn   2.771487  -0.000042   0.000088   0.000174
     8  Br  -0.000042   6.795272  -0.059058  -0.004011
     9  F    0.000088  -0.059058   9.234423   0.001598
    10  H    0.000174  -0.004011   0.001598   0.424958
 Mulliken atomic charges:
              1
     1  C    0.148445
     2  C   -0.556253
     3  H   -0.169175
     4  H   -0.185357
     5  H   -0.188216
     6  Sn   0.654804
     7  Sn   0.333220
     8  Br   0.050568
     9  F   -0.314671
    10  H    0.226635
 Sum of Mulliken atomic charges =   0.00000
 Mulliken charges with hydrogens summed into heavy atoms:
              1
     1  C    0.148445
     2  C   -0.329618
     6  Sn   0.485628
     7  Sn  -0.040353
     8  Br   0.050568
     9  F   -0.314671
 Sum of Mulliken charges with hydrogens summed into heavy atoms =   0.00000
 Electronic spatial extent (au):  <R**2>=           1325.9720
 Charge=              0.0000 electrons
 Dipole moment (field-independent basis, Debye):
    X=             -1.4615    Y=             -1.0411    Z=              0.4409  Tot=              1.8478
 Quadrupole moment (field-independent basis, Debye-Ang):
   XX=            -75.0048   YY=            -67.7648   ZZ=            -70.4270
   XY=             -2.1541   XZ=              4.9617   YZ=              2.6082
 Traceless Quadrupole moment (field-independent basis, Debye-Ang):
   XX=             -3.9393   YY=              3.3007   ZZ=              0.6385
   XY=             -2.1541   XZ=              4.9617   YZ=              2.6082
 Octapole moment (field-independent basis, Debye-Ang**2):
  XXX=            -96.2368  YYY=             -3.6881  ZZZ=             -0.8627  XYY=            -37.2816
  XXY=            -22.8567  XXZ=            -11.8624  XZZ=            -26.0670  YZZ=              1.8018
  YYZ=              3.8664  XYZ=             -1.5078
 Hexadecapole moment (field-independent basis, Debye-Ang**3):
 XXXX=          -3155.3563 YYYY=           -405.6767 ZZZZ=           -163.8886 XXXY=              8.1812
 XXXZ=             83.2786 YYYX=            -11.9080 YYYZ=             30.5702 ZZZX=             21.4479
 ZZZY=             17.3858 XXYY=           -585.7275 XXZZ=           -564.4478 YYZZ=            -99.7662
 XXYZ=             25.0625 YYXZ=             22.5949 ZZXY=             -2.8447
 N-N= 1.345037308122D+02 E-N=-7.255145453147D+02  KE= 1.837788435491D+02
   1 Symmetry operations used in ECPInt.
 ECPInt:  NShTT=     630 NPrTT=    3262 LenC2=     620 LenP2D=    2673.
 LDataN:  DoStor=T MaxTD1= 5 Len=  102
 Calling FoFJK, ICntrl=      2127 FMM=F ISym2X=0 I1Cent= 0 IOpClX= 0 NMat=1 NMatS=1 NMatT=0.
 ***** Axes restored to original set *****
 -------------------------------------------------------------------
 Center     Atomic                   Forces (Hartrees/Bohr)
 Number     Number              X              Y              Z
 -------------------------------------------------------------------
      1        6           0.023112447    0.014161441   -0.002184616
      2        6          -0.020241310   -0.034971329    0.002418473
      3        1          -0.003147192    0.002592718   -0.002066066
      4        1          -0.003933046   -0.000203248   -0.000041434
      5        1           0.003173572   -0.001593318    0.001358643
      6       50          -0.000578187   -0.008951686    0.000368181
      7       50           0.001541496    0.007739881    0.000305605
      8       35           0.014001448    0.005241926   -0.001235474
      9        9          -0.024213396    0.027406666    0.000704571
     10        1           0.010284168   -0.011423052    0.000372115
 -------------------------------------------------------------------
 Cartesian Forces:  Max     0.034971329 RMS     0.012070961

 GradGradGradGradGradGradGradGradGradGradGradGradGradGradGradGradGradGrad
 Berny optimization.
 Internal  Forces:  Max     0.048624302 RMS     0.011383171
 Search for a local minimum.
 Step number   1 out of a maximum of   43
 All quantities printed in internal units (Hartrees-Bohrs-Radians)
 Mixed Optimization -- RFO/linear search
 Second derivative matrix not updated -- first step.
     Eigenvalues ---    0.00230   0.00230   0.01687   0.02799   0.03168
     Eigenvalues ---    0.03169   0.05580   0.07114   0.12124   0.12155
     Eigenvalues ---    0.12326   0.12410   0.12580   0.15992   0.16000
     Eigenvalues ---    0.16000   0.16740   0.22003   0.23160   0.25000
     Eigenvalues ---    0.25000   0.36640   0.49769   0.623331000.00000
     Eigenvalues --- 1000.000001000.000001000.000001000.000001000.00000
     Eigenvalues --- 1000.000001000.000001000.00000
 RFO step:  Lambda=-9.36599477D-03 EMin= 2.30000000D-03
 Linear search not attempted -- first point.
 Iteration  1 RMS(Cart)=  0.03969733 RMS(Int)=  0.00020366
 Iteration  2 RMS(Cart)=  0.00032528 RMS(Int)=  0.00001425
 Iteration  3 RMS(Cart)=  0.00000005 RMS(Int)=  0.00001425
 Variable       Old X    -DE/DX   Delta X   Delta X   Delta X     New X
                                 (Linear)    (Quad)   (Total)
    R1        2.49141   0.04862   0.00000   0.07685   0.07685   2.56826
    R2        3.65237   0.01500   0.00000   0.08485   0.08485   3.73722
    R3        2.60099   0.03658   0.00000   0.07214   0.07214   2.67313
    R4        4.05255   0.00290   0.00000   0.02147   0.02147   4.07402
    R5        2.03092   0.01532   0.00000   0.04076   0.04076   2.07169
    R6        3.24207   0.00447   0.00000   0.03346   0.03346   3.27553
    R7        3.25880   0.00368   0.00000   0.02813   0.02813   3.28693
    R8        3.26088   0.00351   0.00000   0.02691   0.02691   3.28779
    R9        5.27129  -0.00621   0.00000  -0.07711  -0.07711   5.19418
    A1        2.22627  -0.00017   0.00000  -0.00062  -0.00062   2.22565
    A2        2.13582  -0.00019   0.00000  -0.00072  -0.00072   2.13509
    A3        1.92103   0.00036   0.00000   0.00140   0.00140   1.92243
    A4        2.18127  -0.00048   0.00000  -0.00207  -0.00207   2.17921
    A5        2.04048   0.00154   0.00000   0.00875   0.00875   2.04923
    A6        2.06059  -0.00107   0.00000  -0.00666  -0.00666   2.05393
    A7        1.80186   0.00182   0.00000   0.01395   0.01395   1.81582
    A8        1.98200  -0.00103   0.00000  -0.00311  -0.00310   1.97890
    A9        2.05109  -0.00100   0.00000  -0.00690  -0.00690   2.04419
   A10        1.77513   0.00236   0.00000   0.02572   0.02566   1.80080
   A11        1.91018  -0.00064   0.00000   0.00147   0.00144   1.91162
   A12        1.92098  -0.00076   0.00000   0.00069   0.00067   1.92165
    D1        3.10856   0.00027   0.00000   0.00714   0.00714   3.11571
    D2        0.01219   0.00029   0.00000   0.00662   0.00662   0.01880
    D3       -0.01964  -0.00001   0.00000   0.00028   0.00029  -0.01936
    D4       -3.11602   0.00001   0.00000  -0.00024  -0.00024  -3.11626
    D5        0.53520   0.00011   0.00000  -0.01418  -0.01418   0.52101
    D6        2.77526  -0.00048   0.00000  -0.01458  -0.01457   2.76069
    D7       -2.65208   0.00015   0.00000  -0.01329  -0.01329  -2.66538
    D8       -0.41202  -0.00043   0.00000  -0.01368  -0.01368  -0.42570
    D9        2.99601   0.00058   0.00000   0.00747   0.00750   3.00351
   D10        1.05905  -0.00147   0.00000  -0.02411  -0.02413   1.03492
   D11       -1.18247   0.00141   0.00000   0.01857   0.01859  -1.16388
   D12       -3.11944  -0.00065   0.00000  -0.01301  -0.01304  -3.13247
         Item               Value     Threshold  Converged?
 Maximum Force            0.048624     0.000450     NO 
 RMS     Force            0.011383     0.000300     NO 
 Maximum Displacement     0.096468     0.001800     NO 
 RMS     Displacement     0.039803     0.001200     NO 
 Predicted change in Energy=-4.833459D-03
 GradGradGradGradGradGradGradGradGradGradGradGradGradGradGradGradGradGrad

                          Input orientation:                          
 ---------------------------------------------------------------------
 Center     Atomic      Atomic             Coordinates (Angstroms)
 Number     Number       Type             X           Y           Z
 ---------------------------------------------------------------------
      1          6           0        2.293697    2.935221   -0.036970
      2          6           0        1.912356    1.633667    0.050171
      3          1           0       -1.053210    2.173311   -0.565807
      4          1           0       -2.104627   -2.157800   -0.143614
      5          1           0        0.511121   -2.709454    0.390930
      6         50           0       -0.124970    0.957224    0.249030
      7         50           0       -0.493011   -1.646327   -0.551652
      8         35           0        4.134414    3.644030   -0.180010
      9          9           0        1.361338    3.998985   -0.027551
     10          1           0        2.704012    0.875356    0.059950
 ---------------------------------------------------------------------
                    Distance matrix (angstroms):
                    1          2          3          4          5
     1  C    0.000000
     2  C    1.359065   0.000000
     3  H    3.473033   3.076561   0.000000
     4  H    6.730192   5.527108   4.476856   0.000000
     5  H    5.934900   4.576274   5.215733   2.726206   0.000000
     6  Sn   3.137550   2.155880   1.733336   3.711682   3.724148
     7  Sn   5.387135   4.111732   3.860526   1.739369   1.739822
     8  Br   1.977652   3.005343   5.405857   8.519870   7.336279
     9  F    1.414559   2.429895   3.074547   7.066284   6.775039
    10  H    2.102569   1.096289   4.024050   5.688979   4.215351
                    6          7          8          9         10
     6  Sn   0.000000
     7  Sn   2.748641   0.000000
     8  Br   5.054241   7.038399   0.000000
     9  F    3.396751   5.965135   2.799855   0.000000
    10  H    2.836476   4.117511   3.125570   3.401101   0.000000
 Stoichiometry    C2H4BrFSn2
 Framework group  C1[X(C2H4BrFSn2)]
 Deg. of freedom    24
 Full point group                 C1      NOp   1
 Largest Abelian subgroup         C1      NOp   1
 Largest concise Abelian subgroup C1      NOp   1
                         Standard orientation:                         
 ---------------------------------------------------------------------
 Center     Atomic      Atomic             Coordinates (Angstroms)
 Number     Number       Type             X           Y           Z
 ---------------------------------------------------------------------
      1          6           0        2.375359    0.235583   -0.060201
      2          6           0        1.139843   -0.255213    0.222070
      3          1           0       -0.386940    2.100317   -1.037151
      4          1           0       -4.352724    0.342676    0.069870
      5          1           0       -3.064094   -1.783774    1.187832
      6         50           0       -0.683600    0.893839    0.171508
      7         50           0       -2.938051   -0.650177   -0.125961
      8         35           0        4.098731   -0.732626    0.000387
      9          9           0        2.585177    1.580057   -0.446649
     10          1           0        1.072911   -1.303100    0.537194
 ---------------------------------------------------------------------
 Rotational constants (GHZ):      1.9641053      0.1907067      0.1753052
 Standard basis: LANL2DZ (5D, 7F)
 There are    59 symmetry adapted basis functions of A   symmetry.
 Integral buffers will be    131072 words long.
 Raffenetti 1 integral format.
 Two-electron integral symmetry is turned on.
    59 basis functions,   127 primitive gaussians,    59 cartesian basis functions
    20 alpha electrons       20 beta electrons
       nuclear repulsion energy       131.9530077559 Hartrees.
 NAtoms=   10 NActive=   10 NUniq=   10 SFac= 7.50D-01 NAtFMM=   80 NAOKFM=F Big=F
 One-electron integrals computed using PRISM.
   1 Symmetry operations used in ECPInt.
 ECPInt:  NShTT=     630 NPrTT=    3262 LenC2=     620 LenP2D=    2667.
 LDataN:  DoStor=T MaxTD1= 4 Len=   56
 NBasis=    59 RedAO= T  NBF=    59
 NBsUse=    59 1.00D-06 NBFU=    59
 Initial guess read from the read-write file.
 B after Tr=     0.000000    0.000000    0.000000
         Rot=    1.000000    0.000000    0.000000    0.000000 Ang=   0.00 deg.
 Initial guess orbital symmetries:
       Occupied  (A) (A) (A) (A) (A) (A) (A) (A) (A) (A) (A) (A)
                 (A) (A) (A) (A) (A) (A) (A) (A)
       Virtual   (A) (A) (A) (A) (A) (A) (A) (A) (A) (A) (A) (A)
                 (A) (A) (A) (A) (A) (A) (A) (A) (A) (A) (A) (A)
                 (A) (A) (A) (A) (A) (A) (A) (A) (A) (A) (A) (A)
                 (A) (A) (A)
 Harris functional with IExCor=  205 diagonalized for initial guess.
 ExpMin= 6.30D-02 ExpMax= 1.00D+04 ExpMxC= 3.50D+02 IAcc=2 IRadAn=         0 AccDes= 0.00D+00
 HarFok:  IExCor=  205 AccDes= 0.00D+00 IRadAn=         0 IDoV= 1
 ScaDFX=  1.000000  1.000000  1.000000  1.000000
 Defaulting to unpruned grid for atomic number  50.
 Defaulting to unpruned grid for atomic number  50.
 Defaulting to unpruned grid for atomic number  50.
 Defaulting to unpruned grid for atomic number  50.
 Defaulting to unpruned grid for atomic number  50.
 Defaulting to unpruned grid for atomic number  50.
 Defaulting to unpruned grid for atomic number  50.
 Defaulting to unpruned grid for atomic number  50.
 Defaulting to unpruned grid for atomic number  50.
 Defaulting to unpruned grid for atomic number  50.
 Defaulting to unpruned grid for atomic number  50.
 Defaulting to unpruned grid for atomic number  50.
 Defaulting to unpruned grid for atomic number  50.
 Defaulting to unpruned grid for atomic number  50.
 Defaulting to unpruned grid for atomic number  50.
 Defaulting to unpruned grid for atomic number  50.
 Defaulting to unpruned grid for atomic number  50.
 Defaulting to unpruned grid for atomic number  50.
 Defaulting to unpruned grid for atomic number  50.
 Defaulting to unpruned grid for atomic number  50.
 FoFCou: FMM=F IPFlag=           0 FMFlag=      100000 FMFlg1=           0
         NFxFlg=           0 DoJE=T BraDBF=F KetDBF=T FulRan=T
         Omega=  0.000000  0.000000  1.000000  0.000000  0.000000 ICntrl=     500 IOpCl=  0
         NMat0=    1 NMatS0=    1 NMatT0=    0 NMatD0=    1 NMtDS0=    0 NMtDT0=    0
         I1Cent=           4 NGrid=           0.
 Petite list used in FoFCou.
 Requested convergence on RMS density matrix=1.00D-08 within 128 cycles.
 Requested convergence on MAX density matrix=1.00D-06.
 Requested convergence on             energy=1.00D-06.
 No special actions if energy rises.
 Keep R1 ints in memory in canonical form, NReq=2397586.
 SCF Done:  E(RHF) =  -196.781398767     A.U. after   13 cycles
             Convg  =    0.8004D-08             -V/T =  2.0726
 ExpMin= 6.30D-02 ExpMax= 1.00D+04 ExpMxC= 3.50D+02 IAcc=3 IRadAn=         5 AccDes= 0.00D+00
 HarFok:  IExCor=  205 AccDes= 0.00D+00 IRadAn=         5 IDoV=-2
 ScaDFX=  1.000000  1.000000  1.000000  1.000000
 Defaulting to unpruned grid for atomic number  50.
 Defaulting to unpruned grid for atomic number  50.
 Defaulting to unpruned grid for atomic number  50.
 Defaulting to unpruned grid for atomic number  50.
 Defaulting to unpruned grid for atomic number  50.
 Defaulting to unpruned grid for atomic number  50.
 Defaulting to unpruned grid for atomic number  50.
 Defaulting to unpruned grid for atomic number  50.
 Defaulting to unpruned grid for atomic number  50.
 Defaulting to unpruned grid for atomic number  50.
 Defaulting to unpruned grid for atomic number  50.
 Defaulting to unpruned grid for atomic number  50.
 Defaulting to unpruned grid for atomic number  50.
 Defaulting to unpruned grid for atomic number  50.
 Defaulting to unpruned grid for atomic number  50.
 Defaulting to unpruned grid for atomic number  50.
 Defaulting to unpruned grid for atomic number  50.
 Defaulting to unpruned grid for atomic number  50.
 Defaulting to unpruned grid for atomic number  50.
 Defaulting to unpruned grid for atomic number  50.
 Range of M.O.s used for correlation:     4    59
 NBasis=    59 NAE=    20 NBE=    20 NFC=     3 NFV=     0
 NROrb=     56 NOA=    17 NOB=    17 NVA=    39 NVB=    39
 Fully direct method using O(ONN) memory.
 JobTyp=1 Pass  1:  I=   4 to  20 NPSUse= 20 ParTrn=T ParDer=T DoDerP=T.
 Spin components of T(2) and E(2):
     alpha-alpha T2 =       0.2216197410D-01 E2=     -0.4730327224D-01
     alpha-beta  T2 =       0.1679014981D+00 E2=     -0.3221081929D+00
     beta-beta   T2 =       0.2216197410D-01 E2=     -0.4730327224D-01
 ANorm=    0.1101011102D+01
 E2 =    -0.4167147374D+00 EUMP2 =    -0.19719811350466D+03
          IDoAtm=1111111111
          Differentiating once with respect to electric field.
                with respect to dipole field.
          Differentiating once with respect to nuclear coordinates.
          Keep R1 ints in memory in canonical form, NReq=2368185.
          There are     1 degrees of freedom in the 1st order CPHF.  IDoFFX=0.
 LinEq1:  Iter=  0 NonCon=     1 RMS=9.61D-03 Max=9.03D-02
 AX will form     1 AO Fock derivatives at one time.
 LinEq1:  Iter=  1 NonCon=     1 RMS=3.78D-03 Max=3.12D-02
 LinEq1:  Iter=  2 NonCon=     1 RMS=1.19D-03 Max=1.35D-02
 LinEq1:  Iter=  3 NonCon=     1 RMS=2.54D-04 Max=2.35D-03
 LinEq1:  Iter=  4 NonCon=     1 RMS=8.68D-05 Max=8.18D-04
 LinEq1:  Iter=  5 NonCon=     1 RMS=2.22D-05 Max=1.19D-04
 LinEq1:  Iter=  6 NonCon=     1 RMS=6.21D-06 Max=4.18D-05
 LinEq1:  Iter=  7 NonCon=     1 RMS=2.26D-06 Max=2.26D-05
 LinEq1:  Iter=  8 NonCon=     1 RMS=8.74D-07 Max=8.19D-06
 LinEq1:  Iter=  9 NonCon=     1 RMS=2.29D-07 Max=2.71D-06
 LinEq1:  Iter= 10 NonCon=     1 RMS=8.27D-08 Max=1.29D-06
 LinEq1:  Iter= 11 NonCon=     1 RMS=1.48D-08 Max=1.28D-07
 LinEq1:  Iter= 12 NonCon=     1 RMS=3.00D-09 Max=2.44D-08
 LinEq1:  Iter= 13 NonCon=     1 RMS=5.59D-10 Max=2.97D-09
 LinEq1:  Iter= 14 NonCon=     0 RMS=8.92D-11 Max=6.38D-10
 Linear equations converged to 1.000D-10 1.000D-09 after    14 iterations.
 End of Minotr Frequency-dependent properties file   721 does not exist.
 End of Minotr Frequency-dependent properties file   722 does not exist.
   1 Symmetry operations used in ECPInt.
 ECPInt:  NShTT=     630 NPrTT=    3262 LenC2=     620 LenP2D=    2667.
 LDataN:  DoStor=T MaxTD1= 5 Len=  102
 Calling FoFJK, ICntrl=      2127 FMM=F ISym2X=0 I1Cent= 0 IOpClX= 0 NMat=1 NMatS=1 NMatT=0.
 ***** Axes restored to original set *****
 -------------------------------------------------------------------
 Center     Atomic                   Forces (Hartrees/Bohr)
 Number     Number              X              Y              Z
 -------------------------------------------------------------------
      1        6           0.008630021   -0.007593961   -0.000447699
      2        6          -0.002372901    0.001003957    0.000091168
      3        1          -0.000190487   -0.000574961    0.000352669
      4        1           0.000275982    0.000471510   -0.000574490
      5        1           0.000187649    0.000443805   -0.000634488
      6       50          -0.000160406    0.000578938   -0.000794100
      7       50          -0.000276184    0.000044993    0.001486094
      8       35          -0.002208605   -0.000347512    0.000176196
      9        9          -0.005220878    0.004827333    0.000186559
     10        1           0.001335808    0.001145898    0.000158091
 -------------------------------------------------------------------
 Cartesian Forces:  Max     0.008630021 RMS     0.002599829

 GradGradGradGradGradGradGradGradGradGradGradGradGradGradGradGradGradGrad
 Berny optimization.
 Using GEDIIS/GDIIS optimizer.
 Internal  Forces:  Max     0.007072619 RMS     0.001573628
 Search for a local minimum.
 Step number   2 out of a maximum of   43
 All quantities printed in internal units (Hartrees-Bohrs-Radians)
 Mixed Optimization -- RFO/linear search
 Update second derivatives using D2CorX and points    1    2
 DE= -4.65D-03 DEPred=-4.83D-03 R= 9.61D-01
 SS=  1.41D+00  RLast= 1.79D-01 DXNew= 5.0454D-01 5.3735D-01
 Trust test= 9.61D-01 RLast= 1.79D-01 DXMaxT set to 5.05D-01
 Use linear search instead of GDIIS.
     Eigenvalues ---    0.00230   0.00230   0.01699   0.02782   0.03168
     Eigenvalues ---    0.03169   0.05417   0.07066   0.12135   0.12207
     Eigenvalues ---    0.12296   0.12473   0.12611   0.15920   0.16000
     Eigenvalues ---    0.16023   0.17789   0.21999   0.23130   0.24978
     Eigenvalues ---    0.25009   0.36619   0.45008   0.662861000.00000
     Eigenvalues --- 1000.000001000.000001000.000001000.000001000.00000
     Eigenvalues --- 1000.000001000.000001000.00000
 RFO step:  Lambda=-3.52798582D-04 EMin= 2.29836076D-03
 Quartic linear search produced a step of  0.02735.
 Iteration  1 RMS(Cart)=  0.05791717 RMS(Int)=  0.00114276
 Iteration  2 RMS(Cart)=  0.00158853 RMS(Int)=  0.00001635
 Iteration  3 RMS(Cart)=  0.00000070 RMS(Int)=  0.00001634
 Variable       Old X    -DE/DX   Delta X   Delta X   Delta X     New X
                                 (Linear)    (Quad)   (Total)
    R1        2.56826  -0.00264   0.00210  -0.00391  -0.00181   2.56645
    R2        3.73722  -0.00219   0.00232  -0.01276  -0.01044   3.72679
    R3        2.67313   0.00707   0.00197   0.01501   0.01698   2.69011
    R4        4.07402  -0.00016   0.00059  -0.00114  -0.00055   4.07347
    R5        2.07169   0.00017   0.00111   0.00074   0.00185   2.07354
    R6        3.27553  -0.00047   0.00092  -0.00356  -0.00264   3.27289
    R7        3.28693  -0.00053   0.00077  -0.00420  -0.00343   3.28350
    R8        3.28779  -0.00051   0.00074  -0.00404  -0.00330   3.28449
    R9        5.19418  -0.00102  -0.00211  -0.01552  -0.01763   5.17655
    A1        2.22565   0.00184  -0.00002   0.00753   0.00752   2.23316
    A2        2.13509  -0.00193  -0.00002  -0.00791  -0.00794   2.12715
    A3        1.92243   0.00009   0.00004   0.00036   0.00040   1.92283
    A4        2.17921  -0.00021  -0.00006  -0.00103  -0.00109   2.17812
    A5        2.04923  -0.00169   0.00024  -0.01098  -0.01074   2.03848
    A6        2.05393   0.00189  -0.00018   0.01184   0.01165   2.06558
    A7        1.81582   0.00110   0.00038   0.00993   0.01031   1.82613
    A8        1.97890  -0.00085  -0.00008  -0.00260  -0.00268   1.97622
    A9        2.04419  -0.00040  -0.00019  -0.00233  -0.00252   2.04167
   A10        1.80080   0.00089   0.00070   0.01386   0.01451   1.81530
   A11        1.91162  -0.00008   0.00004   0.00314   0.00315   1.91477
   A12        1.92165   0.00010   0.00002   0.00422   0.00421   1.92587
    D1        3.11571  -0.00006   0.00020  -0.00349  -0.00328   3.11243
    D2        0.01880  -0.00003   0.00018   0.00095   0.00112   0.01992
    D3       -0.01936   0.00007   0.00001   0.00066   0.00068  -0.01867
    D4       -3.11626   0.00011  -0.00001   0.00510   0.00508  -3.11118
    D5        0.52101  -0.00001  -0.00039  -0.07417  -0.07455   0.44646
    D6        2.76069  -0.00025  -0.00040  -0.07142  -0.07180   2.68888
    D7       -2.66538  -0.00012  -0.00036  -0.07916  -0.07954  -2.74491
    D8       -0.42570  -0.00037  -0.00037  -0.07640  -0.07679  -0.50249
    D9        3.00351   0.00028   0.00021  -0.00540  -0.00517   2.99834
   D10        1.03492  -0.00080  -0.00066  -0.02593  -0.02661   1.00830
   D11       -1.16388   0.00075   0.00051   0.00424   0.00477  -1.15910
   D12       -3.13247  -0.00033  -0.00036  -0.01629  -0.01667   3.13405
         Item               Value     Threshold  Converged?
 Maximum Force            0.007073     0.000450     NO 
 RMS     Force            0.001574     0.000300     NO 
 Maximum Displacement     0.183983     0.001800     NO 
 RMS     Displacement     0.058230     0.001200     NO 
 Predicted change in Energy=-1.791374D-04
 GradGradGradGradGradGradGradGradGradGradGradGradGradGradGradGradGradGrad

                          Input orientation:                          
 ---------------------------------------------------------------------
 Center     Atomic      Atomic             Coordinates (Angstroms)
 Number     Number       Type             X           Y           Z
 ---------------------------------------------------------------------
      1          6           0        2.295460    2.920502   -0.059923
      2          6           0        1.915238    1.625043    0.087280
      3          1           0       -1.062458    2.181151   -0.509440
      4          1           0       -2.105626   -2.146062   -0.156314
      5          1           0        0.531178   -2.704985    0.330514
      6         50           0       -0.124993    0.955870    0.277618
      7         50           0       -0.498215   -1.625040   -0.561099
      8         35           0        4.127006    3.638913   -0.196388
      9          9           0        1.346622    3.979731   -0.124911
     10          1           0        2.716909    0.879090    0.157139
 ---------------------------------------------------------------------
                    Distance matrix (angstroms):
                    1          2          3          4          5
     1  C    0.000000
     2  C    1.358107   0.000000
     3  H    3.467610   3.087394   0.000000
     4  H    6.711850   5.517963   4.465161   0.000000
     5  H    5.908574   4.552354   5.207641   2.739003   0.000000
     6  Sn   3.135651   2.155589   1.731939   3.705832   3.719573
     7  Sn   5.358895   4.099779   3.848132   1.737552   1.738076
     8  Br   1.972130   3.004673   5.399408   8.503719   7.311132
     9  F    1.423545   2.431646   3.030911   7.031667   6.749651
    10  H    2.095733   1.097271   4.052568   5.701460   4.201557
                    6          7          8          9         10
     6  Sn   0.000000
     7  Sn   2.739313   0.000000
     8  Br   5.050039   7.016757   0.000000
     9  F    3.386948   5.916683   2.802106   0.000000
    10  H    2.845491   4.138062   3.119290   3.401648   0.000000
 Stoichiometry    C2H4BrFSn2
 Framework group  C1[X(C2H4BrFSn2)]
 Deg. of freedom    24
 Full point group                 C1      NOp   1
 Largest Abelian subgroup         C1      NOp   1
 Largest concise Abelian subgroup C1      NOp   1
                         Standard orientation:                         
 ---------------------------------------------------------------------
 Center     Atomic      Atomic             Coordinates (Angstroms)
 Number     Number       Type             X           Y           Z
 ---------------------------------------------------------------------
      1          6           0       -2.363697    0.223099    0.071475
      2          6           0       -1.136853   -0.250017   -0.268333
      3          1           0        0.390435    2.113491    1.001795
      4          1           0        4.346347    0.326592   -0.044827
      5          1           0        3.045959   -1.818991   -1.143735
      6         50           0        0.687492    0.895718   -0.193361
      7         50           0        2.922745   -0.652537    0.138884
      8         35           0       -4.092199   -0.723412   -0.003979
      9          9           0       -2.552574    1.553212    0.542224
     10          1           0       -1.091162   -1.278130   -0.648987
 ---------------------------------------------------------------------
 Rotational constants (GHZ):      1.9527565      0.1917825      0.1765340
 Standard basis: LANL2DZ (5D, 7F)
 There are    59 symmetry adapted basis functions of A   symmetry.
 Integral buffers will be    131072 words long.
 Raffenetti 1 integral format.
 Two-electron integral symmetry is turned on.
    59 basis functions,   127 primitive gaussians,    59 cartesian basis functions
    20 alpha electrons       20 beta electrons
       nuclear repulsion energy       131.9799347531 Hartrees.
 NAtoms=   10 NActive=   10 NUniq=   10 SFac= 7.50D-01 NAtFMM=   80 NAOKFM=F Big=F
 One-electron integrals computed using PRISM.
   1 Symmetry operations used in ECPInt.
 ECPInt:  NShTT=     630 NPrTT=    3262 LenC2=     620 LenP2D=    2668.
 LDataN:  DoStor=T MaxTD1= 4 Len=   56
 NBasis=    59 RedAO= T  NBF=    59
 NBsUse=    59 1.00D-06 NBFU=    59
 Initial guess read from the read-write file.
 B after Tr=     0.000000    0.000000    0.000000
         Rot=    1.000000    0.000000    0.000000    0.000000 Ang=   0.00 deg.
 Initial guess orbital symmetries:
       Occupied  (A) (A) (A) (A) (A) (A) (A) (A) (A) (A) (A) (A)
                 (A) (A) (A) (A) (A) (A) (A) (A)
       Virtual   (A) (A) (A) (A) (A) (A) (A) (A) (A) (A) (A) (A)
                 (A) (A) (A) (A) (A) (A) (A) (A) (A) (A) (A) (A)
                 (A) (A) (A) (A) (A) (A) (A) (A) (A) (A) (A) (A)
                 (A) (A) (A)
 Harris functional with IExCor=  205 diagonalized for initial guess.
 ExpMin= 6.30D-02 ExpMax= 1.00D+04 ExpMxC= 3.50D+02 IAcc=2 IRadAn=         0 AccDes= 0.00D+00
 HarFok:  IExCor=  205 AccDes= 0.00D+00 IRadAn=         0 IDoV= 1
 ScaDFX=  1.000000  1.000000  1.000000  1.000000
 Defaulting to unpruned grid for atomic number  50.
 Defaulting to unpruned grid for atomic number  50.
 Defaulting to unpruned grid for atomic number  50.
 Defaulting to unpruned grid for atomic number  50.
 Defaulting to unpruned grid for atomic number  50.
 Defaulting to unpruned grid for atomic number  50.
 Defaulting to unpruned grid for atomic number  50.
 Defaulting to unpruned grid for atomic number  50.
 Defaulting to unpruned grid for atomic number  50.
 Defaulting to unpruned grid for atomic number  50.
 Defaulting to unpruned grid for atomic number  50.
 Defaulting to unpruned grid for atomic number  50.
 Defaulting to unpruned grid for atomic number  50.
 Defaulting to unpruned grid for atomic number  50.
 Defaulting to unpruned grid for atomic number  50.
 Defaulting to unpruned grid for atomic number  50.
 Defaulting to unpruned grid for atomic number  50.
 Defaulting to unpruned grid for atomic number  50.
 Defaulting to unpruned grid for atomic number  50.
 Defaulting to unpruned grid for atomic number  50.
 FoFCou: FMM=F IPFlag=           0 FMFlag=      100000 FMFlg1=           0
         NFxFlg=           0 DoJE=T BraDBF=F KetDBF=T FulRan=T
         Omega=  0.000000  0.000000  1.000000  0.000000  0.000000 ICntrl=     500 IOpCl=  0
         NMat0=    1 NMatS0=    1 NMatT0=    0 NMatD0=    1 NMtDS0=    0 NMtDT0=    0
         I1Cent=           4 NGrid=           0.
 Petite list used in FoFCou.
 Requested convergence on RMS density matrix=1.00D-08 within 128 cycles.
 Requested convergence on MAX density matrix=1.00D-06.
 Requested convergence on             energy=1.00D-06.
 No special actions if energy rises.
 Keep R1 ints in memory in canonical form, NReq=2397586.
 SCF Done:  E(RHF) =  -196.781069996     A.U. after   17 cycles
             Convg  =    0.2770D-08             -V/T =  2.0727
 ExpMin= 6.30D-02 ExpMax= 1.00D+04 ExpMxC= 3.50D+02 IAcc=3 IRadAn=         5 AccDes= 0.00D+00
 HarFok:  IExCor=  205 AccDes= 0.00D+00 IRadAn=         5 IDoV=-2
 ScaDFX=  1.000000  1.000000  1.000000  1.000000
 Defaulting to unpruned grid for atomic number  50.
 Defaulting to unpruned grid for atomic number  50.
 Defaulting to unpruned grid for atomic number  50.
 Defaulting to unpruned grid for atomic number  50.
 Defaulting to unpruned grid for atomic number  50.
 Defaulting to unpruned grid for atomic number  50.
 Defaulting to unpruned grid for atomic number  50.
 Defaulting to unpruned grid for atomic number  50.
 Defaulting to unpruned grid for atomic number  50.
 Defaulting to unpruned grid for atomic number  50.
 Defaulting to unpruned grid for atomic number  50.
 Defaulting to unpruned grid for atomic number  50.
 Defaulting to unpruned grid for atomic number  50.
 Defaulting to unpruned grid for atomic number  50.
 Defaulting to unpruned grid for atomic number  50.
 Defaulting to unpruned grid for atomic number  50.
 Defaulting to unpruned grid for atomic number  50.
 Defaulting to unpruned grid for atomic number  50.
 Defaulting to unpruned grid for atomic number  50.
 Defaulting to unpruned grid for atomic number  50.
 Range of M.O.s used for correlation:     4    59
 NBasis=    59 NAE=    20 NBE=    20 NFC=     3 NFV=     0
 NROrb=     56 NOA=    17 NOB=    17 NVA=    39 NVB=    39
 Fully direct method using O(ONN) memory.
 JobTyp=1 Pass  1:  I=   4 to  20 NPSUse= 20 ParTrn=T ParDer=T DoDerP=T.
 Spin components of T(2) and E(2):
     alpha-alpha T2 =       0.2221524071D-01 E2=     -0.4738593921D-01
     alpha-beta  T2 =       0.1682249204D+00 E2=     -0.3225028431D+00
     beta-beta   T2 =       0.2221524071D-01 E2=     -0.4738593921D-01
 ANorm=    0.1101206339D+01
 E2 =    -0.4172747215D+00 EUMP2 =    -0.19719834471727D+03
          IDoAtm=1111111111
          Differentiating once with respect to electric field.
                with respect to dipole field.
          Differentiating once with respect to nuclear coordinates.
          Keep R1 ints in memory in canonical form, NReq=2368185.
          There are     1 degrees of freedom in the 1st order CPHF.  IDoFFX=0.
 LinEq1:  Iter=  0 NonCon=     1 RMS=9.59D-03 Max=9.65D-02
 AX will form     1 AO Fock derivatives at one time.
 LinEq1:  Iter=  1 NonCon=     1 RMS=3.79D-03 Max=3.28D-02
 LinEq1:  Iter=  2 NonCon=     1 RMS=1.19D-03 Max=1.30D-02
 LinEq1:  Iter=  3 NonCon=     1 RMS=2.55D-04 Max=2.44D-03
 LinEq1:  Iter=  4 NonCon=     1 RMS=8.86D-05 Max=8.15D-04
 LinEq1:  Iter=  5 NonCon=     1 RMS=2.28D-05 Max=1.23D-04
 LinEq1:  Iter=  6 NonCon=     1 RMS=6.70D-06 Max=4.84D-05
 LinEq1:  Iter=  7 NonCon=     1 RMS=2.66D-06 Max=2.36D-05
 LinEq1:  Iter=  8 NonCon=     1 RMS=9.03D-07 Max=8.63D-06
 LinEq1:  Iter=  9 NonCon=     1 RMS=2.16D-07 Max=2.51D-06
 LinEq1:  Iter= 10 NonCon=     1 RMS=7.88D-08 Max=1.27D-06
 LinEq1:  Iter= 11 NonCon=     1 RMS=1.46D-08 Max=1.29D-07
 LinEq1:  Iter= 12 NonCon=     1 RMS=3.03D-09 Max=2.58D-08
 LinEq1:  Iter= 13 NonCon=     1 RMS=5.58D-10 Max=3.17D-09
 LinEq1:  Iter= 14 NonCon=     0 RMS=8.95D-11 Max=5.94D-10
 Linear equations converged to 1.000D-10 1.000D-09 after    14 iterations.
 End of Minotr Frequency-dependent properties file   721 does not exist.
 End of Minotr Frequency-dependent properties file   722 does not exist.
   1 Symmetry operations used in ECPInt.
 ECPInt:  NShTT=     630 NPrTT=    3262 LenC2=     620 LenP2D=    2668.
 LDataN:  DoStor=T MaxTD1= 5 Len=  102
 Calling FoFJK, ICntrl=      2127 FMM=F ISym2X=0 I1Cent= 0 IOpClX= 0 NMat=1 NMatS=1 NMatT=0.
 ***** Axes restored to original set *****
 -------------------------------------------------------------------
 Center     Atomic                   Forces (Hartrees/Bohr)
 Number     Number              X              Y              Z
 -------------------------------------------------------------------
      1        6           0.003907630   -0.003009760    0.000272873
      2        6          -0.001162329    0.000211841    0.000080103
      3        1           0.000016306   -0.000467893    0.000221126
      4        1           0.000229294    0.000099388   -0.000296591
      5        1          -0.000062075    0.000164452   -0.000296856
      6       50           0.000302599    0.000753319   -0.000352541
      7       50          -0.000160626   -0.000235698    0.000661071
      8       35          -0.001358709   -0.000010933    0.000034072
      9        9          -0.001754871    0.001996079   -0.000202794
     10        1           0.000042780    0.000499205   -0.000120464
 -------------------------------------------------------------------
 Cartesian Forces:  Max     0.003907630 RMS     0.001108485

 GradGradGradGradGradGradGradGradGradGradGradGradGradGradGradGradGradGrad
 Berny optimization.
 Using GEDIIS/GDIIS optimizer.
 Internal  Forces:  Max     0.002664173 RMS     0.000642595
 Search for a local minimum.
 Step number   3 out of a maximum of   43
 All quantities printed in internal units (Hartrees-Bohrs-Radians)
 Mixed Optimization -- En-DIIS/RFO-DIIS
 Update second derivatives using D2CorX and points    1    2    3
 DE= -2.31D-04 DEPred=-1.79D-04 R= 1.29D+00
 SS=  1.41D+00  RLast= 1.60D-01 DXNew= 8.4853D-01 4.7892D-01
 Trust test= 1.29D+00 RLast= 1.60D-01 DXMaxT set to 5.05D-01
 Use linear search instead of GDIIS.
     Eigenvalues ---    0.00226   0.00252   0.01688   0.02743   0.03169
     Eigenvalues ---    0.03186   0.04725   0.07065   0.11675   0.12136
     Eigenvalues ---    0.12210   0.12462   0.12652   0.15358   0.16001
     Eigenvalues ---    0.16114   0.16942   0.22090   0.22474   0.23816
     Eigenvalues ---    0.25464   0.36922   0.40181   0.656551000.00000
     Eigenvalues --- 1000.000001000.000001000.000001000.000001000.00000
     Eigenvalues --- 1000.000001000.000001000.00000
 RFO step:  Lambda=-4.16985800D-05 EMin= 2.25887703D-03
 Quartic linear search produced a step of  0.45486.
 Iteration  1 RMS(Cart)=  0.01908069 RMS(Int)=  0.00015310
 Iteration  2 RMS(Cart)=  0.00017001 RMS(Int)=  0.00002162
 Iteration  3 RMS(Cart)=  0.00000001 RMS(Int)=  0.00002162
 Variable       Old X    -DE/DX   Delta X   Delta X   Delta X     New X
                                 (Linear)    (Quad)   (Total)
    R1        2.56645  -0.00077  -0.00082   0.00041  -0.00041   2.56604
    R2        3.72679  -0.00127  -0.00475  -0.00562  -0.01037   3.71641
    R3        2.69011   0.00266   0.00772   0.00363   0.01136   2.70147
    R4        4.07347  -0.00041  -0.00025  -0.00405  -0.00430   4.06917
    R5        2.07354  -0.00032   0.00084  -0.00100  -0.00016   2.07338
    R6        3.27289  -0.00044  -0.00120  -0.00349  -0.00469   3.26820
    R7        3.28350  -0.00031  -0.00156  -0.00192  -0.00348   3.28002
    R8        3.28449  -0.00029  -0.00150  -0.00176  -0.00327   3.28122
    R9        5.17655  -0.00005  -0.00802   0.00294  -0.00508   5.17147
    A1        2.23316   0.00119   0.00342   0.00437   0.00778   2.24095
    A2        2.12715  -0.00055  -0.00361  -0.00055  -0.00417   2.12299
    A3        1.92283  -0.00064   0.00018  -0.00377  -0.00359   1.91924
    A4        2.17812   0.00036  -0.00050   0.00272   0.00222   2.18034
    A5        2.03848  -0.00060  -0.00489  -0.00117  -0.00606   2.03242
    A6        2.06558   0.00024   0.00530  -0.00139   0.00391   2.06949
    A7        1.82613   0.00054   0.00469   0.00298   0.00767   1.83380
    A8        1.97622  -0.00045  -0.00122  -0.00150  -0.00272   1.97350
    A9        2.04167  -0.00020  -0.00115  -0.00156  -0.00271   2.03896
   A10        1.81530   0.00015   0.00660   0.00223   0.00874   1.82405
   A11        1.91477   0.00032   0.00143   0.00421   0.00561   1.92038
   A12        1.92587   0.00023   0.00192   0.00302   0.00489   1.93076
    D1        3.11243   0.00004  -0.00149   0.00351   0.00202   3.11445
    D2        0.01992   0.00000   0.00051  -0.00042   0.00008   0.02001
    D3       -0.01867  -0.00007   0.00031  -0.00318  -0.00286  -0.02154
    D4       -3.11118  -0.00011   0.00231  -0.00711  -0.00480  -3.11599
    D5        0.44646   0.00006  -0.03391   0.01710  -0.01681   0.42965
    D6        2.68888  -0.00010  -0.03266   0.01634  -0.01632   2.67257
    D7       -2.74491   0.00008  -0.03618   0.02109  -0.01509  -2.76001
    D8       -0.50249  -0.00008  -0.03493   0.02034  -0.01460  -0.51709
    D9        2.99834   0.00018  -0.00235   0.02575   0.02344   3.02178
   D10        1.00830  -0.00031  -0.01211   0.01901   0.00687   1.01517
   D11       -1.15910   0.00037   0.00217   0.02732   0.02953  -1.12957
   D12        3.13405  -0.00012  -0.00758   0.02058   0.01296  -3.13618
         Item               Value     Threshold  Converged?
 Maximum Force            0.002664     0.000450     NO 
 RMS     Force            0.000643     0.000300     NO 
 Maximum Displacement     0.059300     0.001800     NO 
 RMS     Displacement     0.019106     0.001200     NO 
 Predicted change in Energy=-4.587322D-05
 GradGradGradGradGradGradGradGradGradGradGradGradGradGradGradGradGradGrad

                          Input orientation:                          
 ---------------------------------------------------------------------
 Center     Atomic      Atomic             Coordinates (Angstroms)
 Number     Number       Type             X           Y           Z
 ---------------------------------------------------------------------
      1          6           0        2.299646    2.915842   -0.065024
      2          6           0        1.916741    1.623191    0.097134
      3          1           0       -1.069813    2.177192   -0.484005
      4          1           0       -2.107132   -2.139352   -0.187694
      5          1           0        0.528122   -2.708074    0.331731
      6         50           0       -0.121478    0.956337    0.291361
      7         50           0       -0.492585   -1.619285   -0.555737
      8         35           0        4.121944    3.640945   -0.210410
      9          9           0        1.344368    3.976104   -0.148190
     10          1           0        2.721308    0.881314    0.175313
 ---------------------------------------------------------------------
                    Distance matrix (angstroms):
                    1          2          3          4          5
     1  C    0.000000
     2  C    1.357888   0.000000
     3  H    3.474825   3.092595   0.000000
     4  H    6.707439   5.516286   4.449313   0.000000
     5  H    5.909665   4.554465   5.204291   2.745507   0.000000
     6  Sn   3.135046   2.153313   1.729456   3.708855   3.721763
     7  Sn   5.348339   4.092034   3.840778   1.735710   1.736348
     8  Br   1.966642   3.004803   5.401090   8.497867   7.315704
     9  F    1.429555   2.433926   3.029378   7.022337   6.750912
    10  H    2.091618   1.097188   4.060369   5.707016   4.209303
                    6          7          8          9         10
     6  Sn   0.000000
     7  Sn   2.736626   0.000000
     8  Br   5.046338   7.005937   0.000000
     9  F    3.385396   5.903293   2.798415   0.000000
    10  H    2.846143   4.137213   3.118674   3.402696   0.000000
 Stoichiometry    C2H4BrFSn2
 Framework group  C1[X(C2H4BrFSn2)]
 Deg. of freedom    24
 Full point group                 C1      NOp   1
 Largest Abelian subgroup         C1      NOp   1
 Largest concise Abelian subgroup C1      NOp   1
                         Standard orientation:                         
 ---------------------------------------------------------------------
 Center     Atomic      Atomic             Coordinates (Angstroms)
 Number     Number       Type             X           Y           Z
 ---------------------------------------------------------------------
      1          6           0       -2.360107    0.215946    0.069969
      2          6           0       -1.133281   -0.247830   -0.281694
      3          1           0        0.397842    2.117760    0.992588
      4          1           0        4.346193    0.320545    0.004191
      5          1           0        3.055774   -1.813820   -1.143467
      6         50           0        0.688125    0.897721   -0.198319
      7         50           0        2.916510   -0.654087    0.141262
      8         35           0       -4.087594   -0.721045   -0.004317
      9          9           0       -2.545927    1.543644    0.566272
     10          1           0       -1.092077   -1.271086   -0.675484
 ---------------------------------------------------------------------
 Rotational constants (GHZ):      1.9477060      0.1923028      0.1770454
 Standard basis: LANL2DZ (5D, 7F)
 There are    59 symmetry adapted basis functions of A   symmetry.
 Integral buffers will be    131072 words long.
 Raffenetti 1 integral format.
 Two-electron integral symmetry is turned on.
    59 basis functions,   127 primitive gaussians,    59 cartesian basis functions
    20 alpha electrons       20 beta electrons
       nuclear repulsion energy       131.9741693155 Hartrees.
 NAtoms=   10 NActive=   10 NUniq=   10 SFac= 7.50D-01 NAtFMM=   80 NAOKFM=F Big=F
 One-electron integrals computed using PRISM.
   1 Symmetry operations used in ECPInt.
 ECPInt:  NShTT=     630 NPrTT=    3262 LenC2=     620 LenP2D=    2668.
 LDataN:  DoStor=T MaxTD1= 4 Len=   56
 NBasis=    59 RedAO= T  NBF=    59
 NBsUse=    59 1.00D-06 NBFU=    59
 Initial guess read from the read-write file.
 B after Tr=     0.000000    0.000000    0.000000
         Rot=    1.000000    0.000000    0.000000    0.000000 Ang=   0.00 deg.
 Initial guess orbital symmetries:
       Occupied  (A) (A) (A) (A) (A) (A) (A) (A) (A) (A) (A) (A)
                 (A) (A) (A) (A) (A) (A) (A) (A)
       Virtual   (A) (A) (A) (A) (A) (A) (A) (A) (A) (A) (A) (A)
                 (A) (A) (A) (A) (A) (A) (A) (A) (A) (A) (A) (A)
                 (A) (A) (A) (A) (A) (A) (A) (A) (A) (A) (A) (A)
                 (A) (A) (A)
 Harris functional with IExCor=  205 diagonalized for initial guess.
 ExpMin= 6.30D-02 ExpMax= 1.00D+04 ExpMxC= 3.50D+02 IAcc=2 IRadAn=         0 AccDes= 0.00D+00
 HarFok:  IExCor=  205 AccDes= 0.00D+00 IRadAn=         0 IDoV= 1
 ScaDFX=  1.000000  1.000000  1.000000  1.000000
 Defaulting to unpruned grid for atomic number  50.
 Defaulting to unpruned grid for atomic number  50.
 Defaulting to unpruned grid for atomic number  50.
 Defaulting to unpruned grid for atomic number  50.
 Defaulting to unpruned grid for atomic number  50.
 Defaulting to unpruned grid for atomic number  50.
 Defaulting to unpruned grid for atomic number  50.
 Defaulting to unpruned grid for atomic number  50.
 Defaulting to unpruned grid for atomic number  50.
 Defaulting to unpruned grid for atomic number  50.
 Defaulting to unpruned grid for atomic number  50.
 Defaulting to unpruned grid for atomic number  50.
 Defaulting to unpruned grid for atomic number  50.
 Defaulting to unpruned grid for atomic number  50.
 Defaulting to unpruned grid for atomic number  50.
 Defaulting to unpruned grid for atomic number  50.
 Defaulting to unpruned grid for atomic number  50.
 Defaulting to unpruned grid for atomic number  50.
 Defaulting to unpruned grid for atomic number  50.
 Defaulting to unpruned grid for atomic number  50.
 FoFCou: FMM=F IPFlag=           0 FMFlag=      100000 FMFlg1=           0
         NFxFlg=           0 DoJE=T BraDBF=F KetDBF=T FulRan=T
         Omega=  0.000000  0.000000  1.000000  0.000000  0.000000 ICntrl=     500 IOpCl=  0
         NMat0=    1 NMatS0=    1 NMatT0=    0 NMatD0=    1 NMtDS0=    0 NMtDT0=    0
         I1Cent=           4 NGrid=           0.
 Petite list used in FoFCou.
 Requested convergence on RMS density matrix=1.00D-08 within 128 cycles.
 Requested convergence on MAX density matrix=1.00D-06.
 Requested convergence on             energy=1.00D-06.
 No special actions if energy rises.
 Keep R1 ints in memory in canonical form, NReq=2397586.
 SCF Done:  E(RHF) =  -196.780864621     A.U. after   12 cycles
             Convg  =    0.5842D-08             -V/T =  2.0727
 ExpMin= 6.30D-02 ExpMax= 1.00D+04 ExpMxC= 3.50D+02 IAcc=3 IRadAn=         5 AccDes= 0.00D+00
 HarFok:  IExCor=  205 AccDes= 0.00D+00 IRadAn=         5 IDoV=-2
 ScaDFX=  1.000000  1.000000  1.000000  1.000000
 Defaulting to unpruned grid for atomic number  50.
 Defaulting to unpruned grid for atomic number  50.
 Defaulting to unpruned grid for atomic number  50.
 Defaulting to unpruned grid for atomic number  50.
 Defaulting to unpruned grid for atomic number  50.
 Defaulting to unpruned grid for atomic number  50.
 Defaulting to unpruned grid for atomic number  50.
 Defaulting to unpruned grid for atomic number  50.
 Defaulting to unpruned grid for atomic number  50.
 Defaulting to unpruned grid for atomic number  50.
 Defaulting to unpruned grid for atomic number  50.
 Defaulting to unpruned grid for atomic number  50.
 Defaulting to unpruned grid for atomic number  50.
 Defaulting to unpruned grid for atomic number  50.
 Defaulting to unpruned grid for atomic number  50.
 Defaulting to unpruned grid for atomic number  50.
 Defaulting to unpruned grid for atomic number  50.
 Defaulting to unpruned grid for atomic number  50.
 Defaulting to unpruned grid for atomic number  50.
 Defaulting to unpruned grid for atomic number  50.
 Range of M.O.s used for correlation:     4    59
 NBasis=    59 NAE=    20 NBE=    20 NFC=     3 NFV=     0
 NROrb=     56 NOA=    17 NOB=    17 NVA=    39 NVB=    39
 Fully direct method using O(ONN) memory.
 JobTyp=1 Pass  1:  I=   4 to  20 NPSUse= 20 ParTrn=T ParDer=T DoDerP=T.
 Spin components of T(2) and E(2):
     alpha-alpha T2 =       0.2223647899D-01 E2=     -0.4742639364D-01
     alpha-beta  T2 =       0.1683281643D+00 E2=     -0.3226715363D+00
     beta-beta   T2 =       0.2223647899D-01 E2=     -0.4742639364D-01
 ANorm=    0.1101272501D+01
 E2 =    -0.4175243236D+00 EUMP2 =    -0.19719838894487D+03
          IDoAtm=1111111111
          Differentiating once with respect to electric field.
                with respect to dipole field.
          Differentiating once with respect to nuclear coordinates.
          Keep R1 ints in memory in canonical form, NReq=2368185.
          There are     1 degrees of freedom in the 1st order CPHF.  IDoFFX=0.
 LinEq1:  Iter=  0 NonCon=     1 RMS=9.58D-03 Max=9.76D-02
 AX will form     1 AO Fock derivatives at one time.
 LinEq1:  Iter=  1 NonCon=     1 RMS=3.80D-03 Max=3.31D-02
 LinEq1:  Iter=  2 NonCon=     1 RMS=1.20D-03 Max=1.29D-02
 LinEq1:  Iter=  3 NonCon=     1 RMS=2.56D-04 Max=2.45D-03
 LinEq1:  Iter=  4 NonCon=     1 RMS=8.99D-05 Max=8.16D-04
 LinEq1:  Iter=  5 NonCon=     1 RMS=2.33D-05 Max=1.26D-04
 LinEq1:  Iter=  6 NonCon=     1 RMS=7.00D-06 Max=5.46D-05
 LinEq1:  Iter=  7 NonCon=     1 RMS=2.86D-06 Max=2.49D-05
 LinEq1:  Iter=  8 NonCon=     1 RMS=9.13D-07 Max=8.60D-06
 LinEq1:  Iter=  9 NonCon=     1 RMS=2.05D-07 Max=2.31D-06
 LinEq1:  Iter= 10 NonCon=     1 RMS=7.47D-08 Max=1.23D-06
 LinEq1:  Iter= 11 NonCon=     1 RMS=1.44D-08 Max=1.31D-07
 LinEq1:  Iter= 12 NonCon=     1 RMS=3.07D-09 Max=2.71D-08
 LinEq1:  Iter= 13 NonCon=     1 RMS=5.63D-10 Max=3.17D-09
 LinEq1:  Iter= 14 NonCon=     0 RMS=9.01D-11 Max=5.96D-10
 Linear equations converged to 1.000D-10 1.000D-09 after    14 iterations.
 End of Minotr Frequency-dependent properties file   721 does not exist.
 End of Minotr Frequency-dependent properties file   722 does not exist.
   1 Symmetry operations used in ECPInt.
 ECPInt:  NShTT=     630 NPrTT=    3262 LenC2=     620 LenP2D=    2668.
 LDataN:  DoStor=T MaxTD1= 5 Len=  102
 Calling FoFJK, ICntrl=      2127 FMM=F ISym2X=0 I1Cent= 0 IOpClX= 0 NMat=1 NMatS=1 NMatT=0.
 ***** Axes restored to original set *****
 -------------------------------------------------------------------
 Center     Atomic                   Forces (Hartrees/Bohr)
 Number     Number              X              Y              Z
 -------------------------------------------------------------------
      1        6           0.000483313   -0.000666077   -0.000092089
      2        6          -0.000118721    0.000586543   -0.000008085
      3        1          -0.000035553   -0.000034921   -0.000175793
      4        1           0.000044158   -0.000094916    0.000101167
      5        1          -0.000067018   -0.000064433   -0.000121775
      6       50           0.000117753    0.000067926    0.000126199
      7       50           0.000052831    0.000143211    0.000024084
      8       35          -0.000129806    0.000121509    0.000024340
      9        9          -0.000136753    0.000004468    0.000093625
     10        1          -0.000210203   -0.000063309    0.000028328
 -------------------------------------------------------------------
 Cartesian Forces:  Max     0.000666077 RMS     0.000207280

 GradGradGradGradGradGradGradGradGradGradGradGradGradGradGradGradGradGrad
 Berny optimization.
 Using GEDIIS/GDIIS optimizer.
 Internal  Forces:  Max     0.000489939 RMS     0.000185526
 Search for a local minimum.
 Step number   4 out of a maximum of   43
 All quantities printed in internal units (Hartrees-Bohrs-Radians)
 Mixed Optimization -- En-DIIS/RFO-DIIS
 Swaping is turned off.
 Update second derivatives using D2CorX and points    1    2    3    4
 DE= -4.42D-05 DEPred=-4.59D-05 R= 9.64D-01
 SS=  1.41D+00  RLast= 5.78D-02 DXNew= 8.4853D-01 1.7339D-01
 Trust test= 9.64D-01 RLast= 5.78D-02 DXMaxT set to 5.05D-01
     Eigenvalues ---    0.00237   0.00292   0.01681   0.02778   0.03168
     Eigenvalues ---    0.03222   0.04373   0.06951   0.10670   0.12138
     Eigenvalues ---    0.12210   0.12504   0.12610   0.15184   0.16042
     Eigenvalues ---    0.16461   0.16754   0.21244   0.22297   0.23530
     Eigenvalues ---    0.25471   0.36677   0.39923   0.653791000.00000
     Eigenvalues --- 1000.000001000.000001000.000001000.000001000.00000
     Eigenvalues --- 1000.000001000.000001000.00000
 En-DIIS/RFO-DIIS IScMMF=        0 using points:     4    3
 RFO step:  Lambda=-3.89701651D-06.
 DIIS coeffs:      0.96311      0.03689
 Iteration  1 RMS(Cart)=  0.03028206 RMS(Int)=  0.00050087
 Iteration  2 RMS(Cart)=  0.00050515 RMS(Int)=  0.00000283
 Iteration  3 RMS(Cart)=  0.00000013 RMS(Int)=  0.00000283
 Variable       Old X    -DE/DX   Delta X   Delta X   Delta X     New X
                                  (DIIS)     (GDIIS)  (Total)
    R1        2.56604  -0.00046   0.00002  -0.00063  -0.00061   2.56542
    R2        3.71641  -0.00008   0.00038  -0.00396  -0.00358   3.71284
    R3        2.70147   0.00009  -0.00042   0.00493   0.00451   2.70598
    R4        4.06917  -0.00012   0.00016  -0.00223  -0.00207   4.06710
    R5        2.07338  -0.00011   0.00001  -0.00010  -0.00009   2.07329
    R6        3.26820   0.00007   0.00017  -0.00094  -0.00077   3.26743
    R7        3.28002   0.00001   0.00013  -0.00111  -0.00098   3.27904
    R8        3.28122  -0.00006   0.00012  -0.00159  -0.00147   3.27975
    R9        5.17147   0.00001   0.00019  -0.00266  -0.00247   5.16900
    A1        2.24095   0.00049  -0.00029   0.00477   0.00448   2.24543
    A2        2.12299  -0.00039   0.00015  -0.00324  -0.00309   2.11990
    A3        1.91924  -0.00010   0.00013  -0.00154  -0.00141   1.91783
    A4        2.18034   0.00016  -0.00008   0.00136   0.00128   2.18162
    A5        2.03242   0.00012   0.00022  -0.00161  -0.00139   2.03104
    A6        2.06949  -0.00028  -0.00014   0.00021   0.00007   2.06956
    A7        1.83380   0.00016  -0.00028   0.00333   0.00305   1.83685
    A8        1.97350  -0.00011   0.00010  -0.00183  -0.00173   1.97177
    A9        2.03896  -0.00016   0.00010  -0.00320  -0.00310   2.03586
   A10        1.82405  -0.00020  -0.00032   0.00240   0.00206   1.82611
   A11        1.92038   0.00007  -0.00021   0.00243   0.00222   1.92260
   A12        1.93076   0.00036  -0.00018   0.00395   0.00376   1.93452
    D1        3.11445  -0.00006  -0.00007  -0.00161  -0.00168   3.11277
    D2        0.02001  -0.00004   0.00000  -0.00071  -0.00072   0.01929
    D3       -0.02154   0.00009   0.00011   0.00152   0.00162  -0.01992
    D4       -3.11599   0.00011   0.00018   0.00241   0.00259  -3.11340
    D5        0.42965   0.00013   0.00062   0.00911   0.00973   0.43938
    D6        2.67257  -0.00003   0.00060   0.00628   0.00688   2.67944
    D7       -2.76001   0.00011   0.00056   0.00815   0.00871  -2.75129
    D8       -0.51709  -0.00005   0.00054   0.00532   0.00586  -0.51123
    D9        3.02178  -0.00012  -0.00086  -0.04410  -0.04496   2.97682
   D10        1.01517  -0.00012  -0.00025  -0.05071  -0.05097   0.96420
   D11       -1.12957  -0.00013  -0.00109  -0.04368  -0.04477  -1.17434
   D12       -3.13618  -0.00013  -0.00048  -0.05029  -0.05077   3.09623
         Item               Value     Threshold  Converged?
 Maximum Force            0.000490     0.000450     NO 
 RMS     Force            0.000186     0.000300     YES
 Maximum Displacement     0.100137     0.001800     NO 
 RMS     Displacement     0.030281     0.001200     NO 
 Predicted change in Energy=-1.662475D-05
 GradGradGradGradGradGradGradGradGradGradGradGradGradGradGradGradGradGrad

                          Input orientation:                          
 ---------------------------------------------------------------------
 Center     Atomic      Atomic             Coordinates (Angstroms)
 Number     Number       Type             X           Y           Z
 ---------------------------------------------------------------------
      1          6           0        2.302425    2.910188   -0.061047
      2          6           0        1.909024    1.620756    0.098882
      3          1           0       -1.071929    2.182007   -0.515447
      4          1           0       -2.101490   -2.150880   -0.134704
      5          1           0        0.557582   -2.693157    0.288958
      6         50           0       -0.133431    0.966675    0.279415
      7         50           0       -0.506388   -1.611732   -0.554065
      8         35           0        4.126015    3.629587   -0.192266
      9          9           0        1.350732    3.976497   -0.148920
     10          1           0        2.708579    0.874272    0.183670
 ---------------------------------------------------------------------
                    Distance matrix (angstroms):
                    1          2          3          4          5
     1  C    0.000000
     2  C    1.357563   0.000000
     3  H    3.481809   3.094912   0.000000
     4  H    6.709269   5.510355   4.469773   0.000000
     5  H    5.879154   4.524640   5.202845   2.746674   0.000000
     6  Sn   3.134733   2.152217   1.729050   3.709973   3.724508
     7  Sn   5.346051   4.087729   3.835855   1.735193   1.735569
     8  Br   1.964748   3.005865   5.405419   8.496996   7.276152
     9  F    1.431942   2.433642   3.037075   7.032979   6.730907
    10  H    2.090406   1.097140   4.060933   5.691193   4.167064
                    6          7          8          9         10
     6  Sn   0.000000
     7  Sn   2.735319   0.000000
     8  Br   5.045441   7.004391   0.000000
     9  F    3.383082   5.902656   2.797217   0.000000
    10  H    2.845124   4.130434   3.121252   3.402670   0.000000
 Stoichiometry    C2H4BrFSn2
 Framework group  C1[X(C2H4BrFSn2)]
 Deg. of freedom    24
 Full point group                 C1      NOp   1
 Largest Abelian subgroup         C1      NOp   1
 Largest concise Abelian subgroup C1      NOp   1
                         Standard orientation:                         
 ---------------------------------------------------------------------
 Center     Atomic      Atomic             Coordinates (Angstroms)
[...]
     9   9     0.00   0.00   0.00     0.00   0.00   0.00     0.00   0.00   0.00
    10   1     0.00   0.00   0.00    -0.01   0.00   0.00    -0.06   0.94   0.34

 -------------------
 - Thermochemistry -
 -------------------
 Temperature   298.150 Kelvin.  Pressure   1.00000 Atm.
 Atom     1 has atomic number  6 and mass  12.00000
 Atom     2 has atomic number  6 and mass  12.00000
 Atom     3 has atomic number  1 and mass   1.00783
 Atom     4 has atomic number  1 and mass   1.00783
 Atom     5 has atomic number  1 and mass   1.00783
 Atom     6 has atomic number 50 and mass 117.90180
 Atom     7 has atomic number 50 and mass 117.90180
 Atom     8 has atomic number 35 and mass  78.91834
 Atom     9 has atomic number  9 and mass  18.99840
 Atom    10 has atomic number  1 and mass   1.00783
 Molecular mass:   361.75164 amu.
 Principal axes and moments of inertia in atomic units:
                           1         2         3
     Eigenvalues --   926.157799376.55111**********
           X            1.00000  -0.00044  -0.00230
           Y            0.00052   0.99926   0.03838
           Z            0.00228  -0.03838   0.99926
 This molecule is an asymmetric top.
 Rotational symmetry number  1.
 Warning -- assumption of classical behavior for rotation
           may cause significant error
 Rotational temperatures (Kelvin)      0.09352     0.00924     0.00850
 Rotational constants (GHZ):           1.94863     0.19247     0.17701
 Zero-point vibrational energy     112389.5 (Joules/Mol)
                                   26.86174 (Kcal/Mol)
 Warning -- explicit consideration of  14 degrees of freedom as
           vibrations may cause significant error
 Vibrational temperatures:     31.69    51.21   144.61   161.71   232.41
          (Kelvin)            274.85   285.95   448.55   474.12   566.49
                              660.11   722.48   815.03   869.53  1023.19
                             1112.61  1181.48  1335.31  1795.34  2261.79
                             2650.39  2663.72  2685.05  4587.08
 
 Zero-point correction=                           0.042807 (Hartree/Particle)
 Thermal correction to Energy=                    0.052864
 Thermal correction to Enthalpy=                  0.053808
 Thermal correction to Gibbs Free Energy=         0.002131
 Sum of electronic and zero-point Energies=           -197.155595
 Sum of electronic and thermal Energies=              -197.145538
 Sum of electronic and thermal Enthalpies=            -197.144594
 Sum of electronic and thermal Free Energies=         -197.196271
 
                     E (Thermal)             CV                S
                      KCal/Mol        Cal/Mol-Kelvin    Cal/Mol-Kelvin
 Total                   33.173             31.744            108.765
 Electronic               0.000              0.000              0.000
 Translational            0.889              2.981             43.551
 Rotational               0.889              2.981             32.848
 Vibrational             31.395             25.783             32.365
 Vibration     1          0.593              1.985              6.443
 Vibration     2          0.594              1.982              5.490
 Vibration     3          0.604              1.949              3.444
 Vibration     4          0.607              1.939              3.227
 Vibration     5          0.622              1.890              2.532
 Vibration     6          0.634              1.852              2.218
 Vibration     7          0.637              1.842              2.145
 Vibration     8          0.700              1.651              1.353
 Vibration     9          0.712              1.617              1.262
 Vibration    10          0.761              1.484              0.986
 Vibration    11          0.817              1.341              0.770
 Vibration    12          0.857              1.245              0.653
 Vibration    13          0.922              1.104              0.511
 Vibration    14          0.963              1.023              0.442
                       Q            Log10(Q)             Ln(Q)
 Total Bot       0.104718D+00         -0.979977         -2.256480
 Total V=0       0.512618D+19         18.709794         43.080893
 Vib (Bot)       0.114956D-15        -15.939470        -36.701985
 Vib (Bot)    1  0.940422D+01          0.973323          2.241159
 Vib (Bot)    2  0.581499D+01          0.764549          1.760439
 Vib (Bot)    3  0.204168D+01          0.309989          0.713775
 Vib (Bot)    4  0.182134D+01          0.260391          0.599573
 Vib (Bot)    5  0.125096D+01          0.097242          0.223909
 Vib (Bot)    6  0.104730D+01          0.020072          0.046217
 Vib (Bot)    7  0.100376D+01          0.001631          0.003755
 Vib (Bot)    8  0.605925D+00         -0.217581         -0.501000
 Vib (Bot)    9  0.567175D+00         -0.246283         -0.567087
 Vib (Bot)   10  0.454750D+00         -0.342227         -0.788007
 Vib (Bot)   11  0.371093D+00         -0.430517         -0.991303
 Vib (Bot)   12  0.326674D+00         -0.485885         -1.118791
 Vib (Bot)   13  0.272633D+00         -0.564422         -1.299629
 Vib (Bot)   14  0.245966D+00         -0.609125         -1.402562
 Vib (V=0)       0.562732D+04          3.750301          8.635388
 Vib (V=0)    1  0.991750D+01          0.996402          2.294301
 Vib (V=0)    2  0.633645D+01          0.801846          1.846318
 Vib (V=0)    3  0.260202D+01          0.415310          0.956287
 Vib (V=0)    4  0.238873D+01          0.378166          0.870760
 Vib (V=0)    5  0.184718D+01          0.266509          0.613660
 Vib (V=0)    6  0.166053D+01          0.220248          0.507139
 Vib (V=0)    7  0.162140D+01          0.209890          0.483290
 Vib (V=0)    8  0.128559D+01          0.109101          0.251214
 Vib (V=0)    9  0.125610D+01          0.099024          0.228012
 Vib (V=0)   10  0.117587D+01          0.070359          0.162007
 Vib (V=0)   11  0.112266D+01          0.050250          0.115704
 Vib (V=0)   12  0.109726D+01          0.040308          0.092814
 Vib (V=0)   13  0.106950D+01          0.029180          0.067190
 Vib (V=0)   14  0.105722D+01          0.024167          0.055647
 Electronic      0.100000D+01          0.000000          0.000000
 Translational   0.270440D+09          8.432071         19.415561
 Rotational      0.336839D+07          6.527422         15.029944
 ***** Axes restored to original set *****
 -------------------------------------------------------------------
 Center     Atomic                   Forces (Hartrees/Bohr)
 Number     Number              X              Y              Z
 -------------------------------------------------------------------
      1        6          -0.000047707    0.000037755   -0.000002584
      2        6           0.000025053   -0.000075932    0.000006843
      3        1           0.000005084    0.000000032    0.000006496
      4        1           0.000002487   -0.000002372   -0.000006695
      5        1           0.000002786    0.000003413   -0.000004655
      6       50          -0.000026392    0.000026171   -0.000013030
      7       50          -0.000001049   -0.000001168    0.000015667
      8       35           0.000000496   -0.000008571   -0.000001108
      9        9           0.000021263   -0.000008578    0.000001937
     10        1           0.000017980    0.000029250   -0.000002872
 -------------------------------------------------------------------
 Cartesian Forces:  Max     0.000075932 RMS     0.000021529

 GradGradGradGradGradGradGradGradGradGradGradGradGradGradGradGradGradGrad
 Berny optimization.
 Internal  Forces:  Max     0.000053970 RMS     0.000016311
 Search for a local minimum.
 Step number   1 out of a maximum of    2
 All quantities printed in internal units (Hartrees-Bohrs-Radians)
 Second derivative matrix not updated -- analytic derivatives used.
     Eigenvalues ---    0.00114   0.00608   0.01321   0.01657   0.02332
     Eigenvalues ---    0.03245   0.04178   0.05307   0.06688   0.07590
     Eigenvalues ---    0.07718   0.09024   0.10672   0.11276   0.12183
     Eigenvalues ---    0.12977   0.13023   0.13254   0.15737   0.16284
     Eigenvalues ---    0.24318   0.31191   0.35969   0.568521000.00000
     Eigenvalues --- 1000.000001000.000001000.000001000.000001000.00000
     Eigenvalues --- 1000.000001000.000001000.00000
 Angle between quadratic step and forces=  57.29 degrees.
 Linear search not attempted -- first point.
 Iteration  1 RMS(Cart)=  0.00099666 RMS(Int)=  0.00000036
 Iteration  2 RMS(Cart)=  0.00000046 RMS(Int)=  0.00000003
 Variable       Old X    -DE/DX   Delta X   Delta X   Delta X     New X
                                 (Linear)    (Quad)   (Total)
    R1        2.56459   0.00001   0.00000   0.00005   0.00005   2.56463
    R2        3.71448   0.00000   0.00000   0.00006   0.00006   3.71453
    R3        2.70386  -0.00002   0.00000  -0.00010  -0.00010   2.70376
    R4        4.06913   0.00001   0.00000   0.00012   0.00012   4.06925
    R5        2.07317  -0.00001   0.00000  -0.00003  -0.00003   2.07314
    R6        3.26895  -0.00001   0.00000  -0.00008  -0.00008   3.26887
    R7        3.27970   0.00000   0.00000  -0.00008  -0.00008   3.27962
    R8        3.28086   0.00000   0.00000  -0.00003  -0.00003   3.28083
    R9        5.17164   0.00000   0.00000  -0.00011  -0.00011   5.17152
    A1        2.24599  -0.00003   0.00000  -0.00018  -0.00018   2.24581
    A2        2.11867   0.00003   0.00000   0.00015   0.00015   2.11882
    A3        1.91849   0.00000   0.00000   0.00003   0.00003   1.91853
    A4        2.17965  -0.00004   0.00000  -0.00048  -0.00048   2.17916
    A5        2.03533  -0.00002   0.00000  -0.00016  -0.00016   2.03517
    A6        2.06719   0.00005   0.00000   0.00065   0.00065   2.06784
    A7        1.83574   0.00001   0.00000  -0.00005  -0.00005   1.83570
    A8        1.96703  -0.00003   0.00000  -0.00074  -0.00074   1.96629
    A9        2.03310   0.00002   0.00000   0.00050   0.00050   2.03361
   A10        1.82156   0.00000   0.00000   0.00014   0.00014   1.82171
   A11        1.92610   0.00002   0.00000   0.00073   0.00073   1.92684
   A12        1.93679   0.00000   0.00000  -0.00022  -0.00022   1.93658
    D1        3.11168   0.00000   0.00000   0.00024   0.00024   3.11192
    D2        0.01958   0.00000   0.00000   0.00010   0.00010   0.01968
    D3       -0.02098   0.00000   0.00000   0.00021   0.00021  -0.02076
    D4       -3.11307   0.00000   0.00000   0.00007   0.00007  -3.11300
    D5        0.46939   0.00000   0.00000   0.00060   0.00060   0.46999
    D6        2.70190   0.00000   0.00000   0.00071   0.00071   2.70261
    D7       -2.72252   0.00000   0.00000   0.00073   0.00073  -2.72180
    D8       -0.49002   0.00000   0.00000   0.00084   0.00084  -0.48918
    D9        3.01289   0.00001   0.00000  -0.00023  -0.00023   3.01266
   D10        1.00239  -0.00001   0.00000  -0.00071  -0.00071   1.00168
   D11       -1.14606   0.00000   0.00000  -0.00051  -0.00051  -1.14657
   D12        3.12664  -0.00001   0.00000  -0.00100  -0.00100   3.12564
         Item               Value     Threshold  Converged?
 Maximum Force            0.000054     0.000450     YES
 RMS     Force            0.000016     0.000300     YES
 Maximum Displacement     0.002410     0.001800     NO 
 RMS     Displacement     0.000997     0.001200     YES
 Predicted change in Energy=-6.323735D-08
 GradGradGradGradGradGradGradGradGradGradGradGradGradGradGradGradGradGrad

 1\1\GINC-MALLOS72\Freq\RMP2-FC\LANL2DZ\C2H4Br1F1Sn2\MARLIN\24-Oct-2024
 \0\\#N Geom=AllCheck Guess=TCheck SCRF=Check GenChk RMP2(FC)/LANL2DZ F
 req\\Title Card Required\\0,1\C,2.3034080178,2.9144720008,-0.057087687
 6\C,1.9131134107,1.6223939727,0.0842612221\H,-1.0717710338,2.175194825
 9,-0.5196601252\H,-2.1024834248,-2.1481754824,-0.1687175888\H,0.536032
 0836,-2.7015583423,0.335040393\Sn,-0.1284936282,0.9672753156,0.2825593
 828\Sn,-0.4940290892,-1.6156566459,-0.5447519786\Br,4.1249925294,3.639
 0272956,-0.2002491835\F,1.3494281678,3.9794495197,-0.1117544944\H,2.71
 09232066,0.8717902705,0.1448372803\\Version=EM64L-G09RevA.01\State=1-A
 \HF=-196.7809053\MP2=-197.1984018\RMSD=1.312e-09\RMSF=2.153e-05\ZeroPo
 int=0.0428069\Thermal=0.0528639\Dipole=0.0619306,-0.7445142,0.0435483\
 DipoleDeriv=1.3522822,0.2071672,-0.001495,0.4849941,1.6022764,-0.00841
 55,-0.1013422,-0.1689513,0.0846382,-0.7775818,-0.5698042,-0.020015,-0.
 505807,-0.9850038,0.0354715,0.1779678,0.3481478,-0.2904813,-0.293184,-
 0.0580911,-0.009393,0.0690467,-0.2736553,0.0669269,-0.0279349,0.298229
 7,-0.0656205,-0.3540494,-0.1463997,-0.0349727,-0.1242862,-0.2711451,0.
 0598441,0.1329591,0.304503,-0.0676458,-0.2393632,0.0107523,-0.009262,0
 .0516853,-0.3312702,0.0954457,-0.0018582,0.3788028,-0.0914763,1.050588
 7,0.5676244,0.0601888,0.1621957,0.7884418,-0.1004571,-0.1216951,-0.583
 036,0.2697095,0.525324,0.101428,0.0411482,0.0358781,0.5498472,-0.15990
 59,-0.1437249,-0.6944339,0.1406503,-0.5639883,-0.3871816,0.0009783,-0.
 2892054,-0.286192,0.0051245,0.0206513,0.003602,0.0342423,-0.6351608,0.
 2792868,-0.0013062,0.0528804,-0.8568755,0.0153293,0.0389844,0.0809548,
 -0.1673018,-0.0648675,-0.0047821,-0.0258713,0.0626183,0.0635766,-0.009
 3634,0.0259928,0.032181,0.1532855\Polar=129.2068768,47.3164262,188.075
 7802,8.2204733,32.2859737,62.2823633\PG=C01 [X(C2H4Br1F1Sn2)]\NImag=0\
 \0.33621167,0.07026466,0.66206646,-0.01854707,-0.05847598,0.09156968,-
 0.10964318,-0.09885478,0.01170166,0.42801899,-0.11789845,-0.44809526,0
 .04468420,-0.02291500,0.70939993,0.01562822,0.04412086,-0.04040763,-0.
 01004192,-0.06887643,0.07593532,0.00153549,0.00258059,-0.00002676,-0.0
 0468095,0.00717134,-0.00442510,0.04815038,0.00242811,-0.00152485,-0.00
 005692,-0.00156097,0.00393130,-0.00114588,-0.04496012,0.07110625,-0.00
 085741,-0.00077092,-0.00035372,0.00229367,0.00021724,0.00073932,0.0306
 9606,-0.04017263,0.03151286,0.00026443,0.00055498,-0.00010019,0.000011
 18,-0.00024974,-0.00030677,0.00010392,-0.00020795,-0.00010122,0.113476
 62,-0.00029854,0.00055369,-0.00003225,0.00044736,-0.00247528,-0.001951
 83,0.00041034,-0.00050067,-0.00112162,0.03334465,0.02234293,-0.0008864
 2,-0.00055507,0.00029292,0.00040901,-0.00144028,0.00112937,0.00012467,
 -0.00110232,-0.00093602,-0.02163960,-0.00968901,0.01144175,0.00014033,
 -0.00001952,0.00001983,0.00011196,0.00050741,0.00004617,0.00024206,-0.
 00024931,-0.00078772,-0.00542742,0.00629045,-0.00553529,0.05452761,0.0
 0046927,0.00012675,0.00003890,-0.00017298,-0.00030931,-0.00129324,-0.0
 0025295,-0.00170813,-0.00206801,-0.00223333,0.00270748,-0.00092988,-0.
 04356786,0.05709927,-0.00031803,-0.00107893,0.00023438,0.00044870,-0.0
 0000574,-0.00120641,-0.00072879,-0.00195256,0.00072479,0.00254352,-0.0
 0094781,0.00060545,0.03555129,-0.03867388,0.03546016,-0.01112070,-0.01
 008476,0.00225460,-0.10015023,-0.02638448,0.01281435,-0.04282940,0.045
 60463,-0.03344912,-0.00053075,-0.00505473,-0.00228071,0.00020122,0.003
 34199,0.00060737,0.16953940,-0.02231685,-0.00211090,0.00190202,-0.0249
 8270,-0.03729681,0.00974956,0.03895485,-0.07332558,0.04622234,0.001882
 45,0.00307858,-0.00155887,-0.00050616,0.00115414,-0.00298934,0.0017650
 6,0.18328427,0.00404580,0.00288612,0.00384576,0.00394720,0.00227356,-0
 .01681123,-0.02622481,0.03633426,-0.03404054,0.00187331,0.00603439,-0.
 00010363,0.00099400,0.00815273,0.00093045,0.02318138,-0.03259088,0.059
 25013,-0.00183161,0.00086322,-0.00021401,0.00016979,-0.00610341,-0.001
 93261,0.00051967,0.00273189,0.00109310,-0.10786026,-0.03496906,0.02972
 502,-0.04993969,0.04297096,-0.03857776,-0.00997368,-0.00833190,-0.0039
 2146,0.16864782,0.00050704,-0.00031874,-0.00028485,0.00053160,0.002823
 55,-0.00071785,-0.00037404,0.00227115,-0.00231691,-0.03288252,-0.02533
 147,0.01518368,0.03743227,-0.05884913,0.04509711,-0.00933038,-0.076845
 54,-0.02083998,0.00337475,0.15523643,0.00133309,0.00194374,-0.00066190
 ,-0.00016018,0.00386888,0.00127700,0.00066338,0.00779807,0.00161866,0.
 01760701,0.00748623,-0.01206372,-0.03022750,0.03469171,-0.03658665,-0.
 00260227,-0.01914306,-0.01359857,0.01353699,-0.03627232,0.05936801,-0.
 09235070,-0.04472878,0.00809122,-0.01687143,-0.00173310,0.00127565,-0.
 00052637,-0.00017750,0.00026338,-0.00013012,-0.00029359,0.00006493,0.0
 0004256,-0.00019145,0.00038045,0.00385536,0.00051968,-0.00118062,-0.00
 033174,0.00072029,-0.00019069,0.14208444,-0.03574839,-0.03973763,0.004
 08247,-0.02439344,-0.00611911,0.00253894,-0.00040872,0.00008354,0.0001
 2223,-0.00005755,-0.00026382,-0.00015473,0.00005180,-0.00009836,0.0001
 9988,0.00213935,-0.00096093,-0.00060041,-0.00042433,0.00074178,0.00025
 379,0.04572752,0.04323976,0.00649212,0.00407897,-0.01880506,0.00353024
 ,0.00186806,0.00773737,0.00049017,0.00011408,-0.00013187,0.00003633,0.
 00029962,-0.00010104,0.00000003,0.00015341,0.00010503,-0.00103048,-0.0
 0038742,0.00274546,0.00033250,-0.00003800,-0.00020231,-0.01026967,-0.0
 0551373,0.00781960,-0.12449244,0.09756788,-0.00474817,0.00498340,0.000
 26269,-0.00068014,-0.00023259,-0.00262482,0.00025482,0.00003129,-0.000
 01867,-0.00006021,0.00002310,-0.00032489,-0.00019852,-0.00267176,0.003
 68673,-0.00115812,0.00054422,0.00032339,0.00075589,-0.03565903,0.01433
 619,0.00037988,0.15527180,0.07462041,-0.15136972,0.00754678,0.03517238
 ,-0.04140596,0.00359410,-0.00129112,0.00004683,-0.00026134,-0.00021182
 ,-0.00031710,0.00009143,-0.00007250,-0.00013582,0.00019661,0.00520190,
 -0.00088110,-0.00122334,-0.00020481,0.00052979,-0.00007714,0.00087195,
 0.00239773,-0.00015543,-0.11140710,0.19487686,-0.00331024,0.00703947,-
 0.03161883,-0.00298022,0.00362880,0.00113250,-0.00039396,-0.00013082,0
 .00041261,-0.00000259,-0.00015991,-0.00002839,-0.00000453,-0.00012203,
 -0.00017351,-0.00032924,-0.00026493,-0.00313850,-0.00008078,0.00004163
 ,0.00045044,0.00150131,-0.00063997,0.00363157,0.00509077,-0.01114663,0
 .01781317,0.00128672,-0.01814350,0.00156889,-0.20194953,0.16734275,-0.
 01237784,-0.00228221,-0.00098397,0.00059444,0.00006111,0.00014178,0.00
 007861,0.00007827,-0.00003877,0.00029175,-0.00631944,0.00932884,-0.001
 55667,0.00005548,-0.00030239,-0.00071573,-0.00011297,-0.00122243,0.000
 03889,0.00220201,-0.00267929,0.00050947,0.20698056,0.02797273,-0.01958
 980,0.00059563,0.13672852,-0.18045305,0.01398177,-0.00183018,-0.000379
 83,0.00014962,0.00006083,0.00020567,0.00015505,0.00013342,0.00001311,0
 .00015466,-0.00719858,0.00390388,-0.00042647,0.00009268,-0.00025783,-0
 .00054990,-0.00071502,0.00071705,-0.00041956,-0.00180138,-0.00374151,0
 .00175439,-0.15344302,0.19958232,-0.00358008,0.00081174,-0.00409560,-0
 .00914815,0.01378170,-0.02952561,-0.00017485,0.00031472,0.00045392,0.0
 0009019,0.00008219,-0.00023670,-0.00005629,0.00005028,-0.00009369,0.00
 083412,-0.00093943,0.00092066,0.00003902,0.00014749,0.00039903,0.00006
 404,-0.00028846,-0.00279875,0.00036380,0.00143497,0.01151894,0.0115682
 0,-0.01539521,0.02345779\\0.00004771,-0.00003775,0.00000258,-0.0000250
 5,0.00007593,-0.00000684,-0.00000508,-0.00000003,-0.00000650,-0.000002
 49,0.00000237,0.00000669,-0.00000279,-0.00000341,0.00000466,0.00002639
 ,-0.00002617,0.00001303,0.00000105,0.00000117,-0.00001567,-0.00000050,
 0.00000857,0.00000111,-0.00002126,0.00000858,-0.00000194,-0.00001798,-
 0.00002925,0.00000287\\\@


 TERENCE, THIS IS STUPID STUFF:
 YOU EAT YOUR VICTUALS FAST ENOUGH;
 THERE CAN'T BE MUCH AMISS, 'TIS CLEAR
 TO SEE THE RATE YOU DRINK YOUR BEER.
 BUT OH, GOOD LORD, THE VERSE YOU MAKE,
 IT GIVES A CHAP THE BELLY-ACHE.
 THE COW, THE OLD COW, SHE IS DEAD;
 IT SLEEPS WELL, THE HORNED HEAD:
 WE POOR LADS, 'TIS OUR TURN NOW
 TO HEAR SUCH TUNES AS KILLED THE COW.
 PRETTY FRIENDSHIP 'TIS TO RHYME
 YOUR FRIENDS TO DEATH BEFORE THEIR TIME.
 MOPING, MELANCHOLY MAD:
 COME PIPE A TUNE TO DANCE TO, LAD.

     -- A. E. HOUSMAN
 Job cpu time:  0 days  0 hours  3 minutes 44.0 seconds.
 File lengths (MBytes):  RWF=    145 Int=      0 D2E=      0 Chk=      1 Scr=      1
 Normal termination of Gaussian 09 at Thu Oct 24 10:19:44 2024.
