 Entering Gaussian System, Link 0=g09
 Initial command:
 /u/local/G09/g09/l1.exe /tmp/marlin/22702.mallos00.local/Gau-27876.inp -scrdir=/tmp/marlin/22702.mallos00.local/
 Entering Link 1 = /u/local/G09/g09/l1.exe PID=     27878.
  
 Copyright (c) 1988,1990,1992,1993,1995,1998,2003,2009, Gaussian, Inc.
                  All Rights Reserved.
  
 This is part of the Gaussian(R) 09 program.  It is based on
 the Gaussian(R) 03 system (copyright 2003, Gaussian, Inc.),
 the Gaussian(R) 98 system (copyright 1998, Gaussian, Inc.),
 the Gaussian(R) 94 system (copyright 1995, Gaussian, Inc.),
 the Gaussian 92(TM) system (copyright 1992, Gaussian, Inc.),
 the Gaussian 90(TM) system (copyright 1990, Gaussian, Inc.),
 the Gaussian 88(TM) system (copyright 1988, Gaussian, Inc.),
 the Gaussian 86(TM) system (copyright 1986, Carnegie Mellon
 University), and the Gaussian 82(TM) system (copyright 1983,
 Carnegie Mellon University). Gaussian is a federally registered
 trademark of Gaussian, Inc.
  
 This software contains proprietary and confidential information,
 including trade secrets, belonging to Gaussian, Inc.
  
 This software is provided under written license and may be
 used, copied, transmitted, or stored only in accord with that
 written license.
  
 The following legend is applicable only to US Government
 contracts under FAR:
  
                    RESTRICTED RIGHTS LEGEND
  
 Use, reproduction and disclosure by the US Government is
 subject to restrictions as set forth in subparagraphs (a)
 and (c) of the Commercial Computer Software - Restricted
 Rights clause in FAR 52.227-19.
  
 Gaussian, Inc.
 340 Quinnipiac St., Bldg. 40, Wallingford CT 06492
  
  
 ---------------------------------------------------------------
 Warning -- This program may not be used in any manner that
 competes with the business of Gaussian, Inc. or will provide
 assistance to any competitor of Gaussian, Inc.  The licensee
 of this program is prohibited from giving any competitor of
 Gaussian, Inc. access to this program.  By using this program,
 the user acknowledges that Gaussian, Inc. is engaged in the
 business of creating and licensing software in the field of
 computational chemistry and represents and warrants to the
 licensee that it is not a competitor of Gaussian, Inc. and that
 it will not use this program in any manner prohibited above.
 ---------------------------------------------------------------
  

 Cite this work as:
 Gaussian 09, Revision A.01,
 M. J. Frisch, G. W. Trucks, H. B. Schlegel, G. E. Scuseria, 
 M. A. Robb, J. R. Cheeseman, G. Scalmani, V. Barone, B. Mennucci, 
 G. A. Petersson, H. Nakatsuji, M. Caricato, X. Li, H. P. Hratchian, 
 A. F. Izmaylov, J. Bloino, G. Zheng, J. L. Sonnenberg, M. Hada, 
 M. Ehara, K. Toyota, R. Fukuda, J. Hasegawa, M. Ishida, T. Nakajima, 
 Y. Honda, O. Kitao, H. Nakai, T. Vreven, J. A. Montgomery, Jr., 
 J. E. Peralta, F. Ogliaro, M. Bearpark, J. J. Heyd, E. Brothers, 
 K. N. Kudin, V. N. Staroverov, R. Kobayashi, J. Normand, 
 K. Raghavachari, A. Rendell, J. C. Burant, S. S. Iyengar, J. Tomasi, 
 M. Cossi, N. Rega, J. M. Millam, M. Klene, J. E. Knox, J. B. Cross, 
 V. Bakken, C. Adamo, J. Jaramillo, R. Gomperts, R. E. Stratmann, 
 O. Yazyev, A. J. Austin, R. Cammi, C. Pomelli, J. W. Ochterski, 
 R. L. Martin, K. Morokuma, V. G. Zakrzewski, G. A. Voth, 
 P. Salvador, J. J. Dannenberg, S. Dapprich, A. D. Daniels, 
 O. Farkas, J. B. Foresman, J. V. Ortiz, J. Cioslowski, 
 and D. J. Fox, Gaussian, Inc., Wallingford CT, 2009.
 
 ******************************************
 Gaussian 09:  EM64L-G09RevA.01  8-May-2009
                24-Oct-2024 
 ******************************************
 %mem=206GB
 %nproc=20
 Will use up to   20 processors via shared memory.
 %chk=4-sdd.chk
 ---------------------------------------
 # opt freq=noraman hf/sdd geom=allcheck
 ---------------------------------------
 1/18=20,19=15,29=7,38=1/1,3;
 2/9=110,12=2,40=1/2;
 3/5=17,6=7,11=9,14=-4,16=1,25=1,30=1,71=1/1,2,3;
 4//1;
 5/5=2,38=5/2;
 6/7=2,8=2,9=2,10=2,28=1/1;
 7//1,2,3,16;
 1/18=20,19=15/3(2);
 2/9=110/2;
 99//99;
 2/9=110/2;
 3/5=17,6=7,11=9,14=-2,16=1,25=1,30=1,71=1/1,2,3;
 4/5=5,16=3/1;
 5/5=2,38=5/2;
 7//1,2,3,16;
 1/18=20,19=15/3(-5);
 2/9=110/2;
 6/7=2,8=2,9=2,10=2,19=2,28=1/1;
 99/9=1/99;
 -------------------
 Title Card Required
 -------------------
 Redundant internal coordinates taken from checkpoint file:
 4-sdd.chk
 Charge =  0 Multiplicity = 1
 C,0,2.2844134646,2.9221330505,-0.0355482958
 C,0,1.9136091805,1.6591198219,0.0384120647
 H,0,-1.0143523733,2.1934284133,-0.5691076088
 H,0,-2.081906599,-2.1690087588,-0.134079309
 H,0,0.481133468,-2.7170915719,0.4040341448
 Sn,0,-0.1109269243,0.9822367886,0.2434303581
 Sn,0,-0.4888066767,-1.6627821013,-0.5578802334
 Br,0,4.083364828,3.6158613738,-0.1698424459
 F,0,1.3792360879,3.958675623,-0.0096315264
 H,0,2.6953557842,0.9216400908,0.0346900715
 Recover connectivity data from disk.

 GradGradGradGradGradGradGradGradGradGradGradGradGradGradGradGradGradGrad
 Berny optimization.
 Initialization pass.
                           ----------------------------
                           !    Initial Parameters    !
                           ! (Angstroms and Degrees)  !
 --------------------------                            --------------------------
 ! Name  Definition              Value          Derivative Info.                !
 --------------------------------------------------------------------------------
 ! R1    R(1,2)                  1.3184         estimate D2E/DX2                !
 ! R2    R(1,8)                  1.9327         estimate D2E/DX2                !
 ! R3    R(1,9)                  1.3764         estimate D2E/DX2                !
 ! R4    R(2,6)                  2.1445         estimate D2E/DX2                !
 ! R5    R(2,10)                 1.0747         estimate D2E/DX2                !
 ! R6    R(3,6)                  1.7156         estimate D2E/DX2                !
 ! R7    R(4,7)                  1.7245         estimate D2E/DX2                !
 ! R8    R(5,7)                  1.7256         estimate D2E/DX2                !
 ! R9    R(6,7)                  2.7894         estimate D2E/DX2                !
 ! A1    A(2,1,8)              127.556          estimate D2E/DX2                !
 ! A2    A(2,1,9)              122.3732         estimate D2E/DX2                !
 ! A3    A(8,1,9)              110.0671         estimate D2E/DX2                !
 ! A4    A(1,2,6)              124.9777         estimate D2E/DX2                !
 ! A5    A(1,2,10)             116.9109         estimate D2E/DX2                !
 ! A6    A(6,2,10)             118.063          estimate D2E/DX2                !
 ! A7    A(2,6,3)              103.2392         estimate D2E/DX2                !
 ! A8    A(2,6,7)              113.5605         estimate D2E/DX2                !
 ! A9    A(3,6,7)              117.5185         estimate D2E/DX2                !
 ! A10   A(4,7,5)              101.7077         estimate D2E/DX2                !
 ! A11   A(4,7,6)              109.4451         estimate D2E/DX2                !
 ! A12   A(5,7,6)              110.0642         estimate D2E/DX2                !
 ! D1    D(8,1,2,6)            178.1076         estimate D2E/DX2                !
 ! D2    D(8,1,2,10)             0.6982         estimate D2E/DX2                !
 ! D3    D(9,1,2,6)             -1.1256         estimate D2E/DX2                !
 ! D4    D(9,1,2,10)          -178.535          estimate D2E/DX2                !
 ! D5    D(1,2,6,3)             30.6645         estimate D2E/DX2                !
 ! D6    D(1,2,6,7)            159.0106         estimate D2E/DX2                !
 ! D7    D(10,2,6,3)          -151.9533         estimate D2E/DX2                !
 ! D8    D(10,2,6,7)           -23.6072         estimate D2E/DX2                !
 ! D9    D(2,6,7,4)            171.6589         estimate D2E/DX2                !
 ! D10   D(2,6,7,5)             60.6789         estimate D2E/DX2                !
 ! D11   D(3,6,7,4)            -67.7506         estimate D2E/DX2                !
 ! D12   D(3,6,7,5)           -178.7305         estimate D2E/DX2                !
 --------------------------------------------------------------------------------
 Trust Radius=3.00D-01 FncErr=1.00D-07 GrdErr=1.00D-07
 Number of steps in this run=  43 maximum allowed number of steps= 100.
 GradGradGradGradGradGradGradGradGradGradGradGradGradGradGradGradGradGrad

                          Input orientation:                          
 ---------------------------------------------------------------------
 Center     Atomic      Atomic             Coordinates (Angstroms)
 Number     Number       Type             X           Y           Z
 ---------------------------------------------------------------------
      1          6           0        2.284413    2.922133   -0.035548
      2          6           0        1.913609    1.659120    0.038412
      3          1           0       -1.014352    2.193428   -0.569108
      4          1           0       -2.081907   -2.169009   -0.134079
      5          1           0        0.481133   -2.717092    0.404034
      6         50           0       -0.110927    0.982237    0.243430
      7         50           0       -0.488807   -1.662782   -0.557880
      8         35           0        4.083365    3.615861   -0.169842
      9          9           0        1.379236    3.958676   -0.009632
     10          1           0        2.695356    0.921640    0.034690
 ---------------------------------------------------------------------
                    Distance matrix (angstroms):
                    1          2          3          4          5
     1  C    0.000000
     2  C    1.318396   0.000000
     3  H    3.420168   3.037684   0.000000
     4  H    6.707770   5.536106   4.512181   0.000000
     5  H    5.936826   4.619187   5.224623   2.675656   0.000000
     6  Sn   3.094945   2.144516   1.715628   3.735990   3.749848
     7  Sn   5.383774   4.142728   3.891874   1.724483   1.725582
     8  Br   1.932749   2.929172   5.307490   8.454382   7.308331
     9  F    1.376386   2.361317   3.026281   7.038715   6.748598
    10  H    2.043472   1.074718   3.967865   5.692348   4.275461
                    6          7          8          9         10
     6  Sn   0.000000
     7  Sn   2.789447   0.000000
     8  Br   4.969794   6.994241   0.000000
     9  F    3.338235   5.949029   2.730476   0.000000
    10  H    2.814688   4.143582   3.037636   3.310245   0.000000
 Stoichiometry    C2H4BrFSn2
 Framework group  C1[X(C2H4BrFSn2)]
 Deg. of freedom    24
 Full point group                 C1      NOp   1
 Largest Abelian subgroup         C1      NOp   1
 Largest concise Abelian subgroup C1      NOp   1
                         Standard orientation:                         
 ---------------------------------------------------------------------
 Center     Atomic      Atomic             Coordinates (Angstroms)
 Number     Number       Type             X           Y           Z
 ---------------------------------------------------------------------
      1          6           0        2.367769    0.217573   -0.062358
      2          6           0        1.165045   -0.251618    0.205003
      3          1           0       -0.326857    2.081942   -1.042496
      4          1           0       -4.336827    0.352881    0.093402
      5          1           0       -3.092214   -1.736809    1.208422
      6         50           0       -0.642097    0.902242    0.162623
      7         50           0       -2.946230   -0.644506   -0.119432
      8         35           0        4.046331   -0.738377    0.001767
      9          9           0        2.583723    1.527155   -0.426773
     10          1           0        1.100256   -1.281765    0.504365
 ---------------------------------------------------------------------
 Rotational constants (GHZ):      1.9863188      0.1932755      0.1775398
 Standard basis: SDD (6D, 10F)
 There are    65 symmetry adapted basis functions of A   symmetry.
 Integral buffers will be    131072 words long.
 Raffenetti 1 integral format.
 Two-electron integral symmetry is turned on.
    65 basis functions,   139 primitive gaussians,    65 cartesian basis functions
    20 alpha electrons       20 beta electrons
       nuclear repulsion energy       134.5037308122 Hartrees.
 NAtoms=   10 NActive=   10 NUniq=   10 SFac= 7.50D-01 NAtFMM=   80 NAOKFM=F Big=F
 One-electron integrals computed using PRISM.
   1 Symmetry operations used in ECPInt.
 ECPInt:  NShTT=     780 NPrTT=    3579 LenC2=     766 LenP2D=    2851.
 LDataN:  DoStor=T MaxTD1= 5 Len=  102
 NBasis=    65 RedAO= T  NBF=    65
 NBsUse=    65 1.00D-06 NBFU=    65
 Harris functional with IExCor=  205 diagonalized for initial guess.
 ExpMin= 3.61D-02 ExpMax= 9.99D+03 ExpMxC= 1.51D+03 IAcc=3 IRadAn=         0 AccDes= 0.00D+00
 HarFok:  IExCor=  205 AccDes= 0.00D+00 IRadAn=         0 IDoV= 1
 ScaDFX=  1.000000  1.000000  1.000000  1.000000
 Defaulting to unpruned grid for atomic number  50.
 Defaulting to unpruned grid for atomic number  50.
 Defaulting to unpruned grid for atomic number  50.
 Defaulting to unpruned grid for atomic number  50.
 Defaulting to unpruned grid for atomic number  50.
 Defaulting to unpruned grid for atomic number  50.
 Defaulting to unpruned grid for atomic number  50.
 Defaulting to unpruned grid for atomic number  50.
 Defaulting to unpruned grid for atomic number  50.
 Defaulting to unpruned grid for atomic number  50.
 Defaulting to unpruned grid for atomic number  50.
 Defaulting to unpruned grid for atomic number  50.
 Defaulting to unpruned grid for atomic number  50.
 Defaulting to unpruned grid for atomic number  50.
 Defaulting to unpruned grid for atomic number  50.
 Defaulting to unpruned grid for atomic number  50.
 Defaulting to unpruned grid for atomic number  50.
 Defaulting to unpruned grid for atomic number  50.
 Defaulting to unpruned grid for atomic number  50.
 Defaulting to unpruned grid for atomic number  50.
 FoFCou: FMM=F IPFlag=           0 FMFlag=      100000 FMFlg1=           0
         NFxFlg=           0 DoJE=T BraDBF=F KetDBF=T FulRan=T
         Omega=  0.000000  0.000000  1.000000  0.000000  0.000000 ICntrl=     500 IOpCl=  0
         NMat0=    1 NMatS0=    1 NMatT0=    0 NMatD0=    1 NMtDS0=    0 NMtDT0=    0
         I1Cent=           4 NGrid=           0.
 Petite list used in FoFCou.
 Initial guess orbital symmetries:
       Occupied  (A) (A) (A) (A) (A) (A) (A) (A) (A) (A) (A) (A)
                 (A) (A) (A) (A) (A) (A) (A) (A)
       Virtual   (A) (A) (A) (A) (A) (A) (A) (A) (A) (A) (A) (A)
                 (A) (A) (A) (A) (A) (A) (A) (A) (A) (A) (A) (A)
                 (A) (A) (A) (A) (A) (A) (A) (A) (A) (A) (A) (A)
                 (A) (A) (A) (A) (A) (A) (A) (A) (A)
 The electronic state of the initial guess is 1-A.
 Requested convergence on RMS density matrix=1.00D-08 within 128 cycles.
 Requested convergence on MAX density matrix=1.00D-06.
 Requested convergence on             energy=1.00D-06.
 No special actions if energy rises.
 Keep R1 ints in memory in canonical form, NReq=3134234.
 SCF Done:  E(RHF) =  -197.001725584     A.U. after   15 cycles
             Convg  =    0.5737D-08             -V/T =  2.0700

 **********************************************************************

            Population analysis using the SCF density.

 **********************************************************************

 Orbital symmetries:
       Occupied  (A) (A) (A) (A) (A) (A) (A) (A) (A) (A) (A) (A)
                 (A) (A) (A) (A) (A) (A) (A) (A)
       Virtual   (A) (A) (A) (A) (A) (A) (A) (A) (A) (A) (A) (A)
                 (A) (A) (A) (A) (A) (A) (A) (A) (A) (A) (A) (A)
                 (A) (A) (A) (A) (A) (A) (A) (A) (A) (A) (A) (A)
                 (A) (A) (A) (A) (A) (A) (A) (A) (A)
 The electronic state is 1-A.
 Alpha  occ. eigenvalues --  -26.32779 -11.41335 -11.27090  -1.64480  -1.12547
 Alpha  occ. eigenvalues --   -1.03341  -0.81764  -0.72709  -0.71046  -0.70098
 Alpha  occ. eigenvalues --   -0.65057  -0.61222  -0.56373  -0.48185  -0.46075
 Alpha  occ. eigenvalues --   -0.44109  -0.43126  -0.39458  -0.39244  -0.27818
 Alpha virt. eigenvalues --   -0.02837   0.07592   0.08935   0.09851   0.10779
 Alpha virt. eigenvalues --    0.11083   0.13405   0.14557   0.17237   0.18668
 Alpha virt. eigenvalues --    0.23161   0.28342   0.33035   0.37480   0.46672
 Alpha virt. eigenvalues --    0.47524   0.48228   0.49282   0.50261   0.51420
 Alpha virt. eigenvalues --    0.53400   0.57831   0.60383   0.61027   0.63092
 Alpha virt. eigenvalues --    0.63342   0.64255   0.76814   0.87362   1.11242
 Alpha virt. eigenvalues --    1.16165   1.17250   1.23571   1.26927   1.29515
 Alpha virt. eigenvalues --    1.33358   1.33924   1.55586   2.24598   7.10100
 Alpha virt. eigenvalues --   12.32639  13.57908  23.66791  24.02736  55.14805
          Condensed to atoms (all electrons):
              1          2          3          4          5          6
     1  C    5.218530   0.267420   0.002327  -0.000001   0.000002  -0.054459
     2  C    0.267420   5.947833  -0.027596   0.000069   0.000220   0.193511
     3  H    0.002327  -0.027596   0.835583   0.000019   0.000010   0.361608
     4  H   -0.000001   0.000069   0.000019   0.858659  -0.012125  -0.008897
     5  H    0.000002   0.000220   0.000010  -0.012125   0.863349  -0.010829
     6  Sn  -0.054459   0.193511   0.361608  -0.008897  -0.010829   2.656088
     7  Sn  -0.000229  -0.021324  -0.009966   0.338107   0.337743   0.251508
     8  Br   0.260901  -0.113896  -0.000175   0.000006   0.000010   0.002189
     9  F    0.185386  -0.052708  -0.000340   0.000000   0.000000   0.000437
    10  H   -0.014787   0.370637   0.000054   0.000000   0.000002  -0.011411
              7          8          9         10
     1  C   -0.000229   0.260901   0.185386  -0.014787
     2  C   -0.021324  -0.113896  -0.052708   0.370637
     3  H   -0.009966  -0.000175  -0.000340   0.000054
     4  H    0.338107   0.000006   0.000000   0.000000
     5  H    0.337743   0.000010   0.000000   0.000002
     6  Sn   0.251508   0.002189   0.000437  -0.011411
     7  Sn   2.784444  -0.000571   0.000074  -0.000093
     8  Br  -0.000571   6.815206  -0.051336  -0.004557
     9  F    0.000074  -0.051336   9.232212   0.001584
    10  H   -0.000093  -0.004557   0.001584   0.431046
 Mulliken atomic charges:
              1
     1  C    0.134910
     2  C   -0.564167
     3  H   -0.161524
     4  H   -0.175838
     5  H   -0.178382
     6  Sn   0.620255
     7  Sn   0.320308
     8  Br   0.092224
     9  F   -0.315309
    10  H    0.227523
 Sum of Mulliken atomic charges =   0.00000
 Mulliken charges with hydrogens summed into heavy atoms:
              1
     1  C    0.134910
     2  C   -0.336643
     6  Sn   0.458731
     7  Sn  -0.033912
     8  Br   0.092224
     9  F   -0.315309
 Sum of Mulliken charges with hydrogens summed into heavy atoms =   0.00000
 Electronic spatial extent (au):  <R**2>=           1324.6931
 Charge=              0.0000 electrons
 Dipole moment (field-independent basis, Debye):
    X=             -1.5506    Y=             -1.0853    Z=              0.4753  Tot=              1.9514
 Quadrupole moment (field-independent basis, Debye-Ang):
   XX=            -74.1336   YY=            -67.2602   ZZ=            -70.0828
   XY=             -2.4193   XZ=              4.7518   YZ=              2.3271
 Traceless Quadrupole moment (field-independent basis, Debye-Ang):
   XX=             -3.6414   YY=              3.2320   ZZ=              0.4094
   XY=             -2.4193   XZ=              4.7518   YZ=              2.3271
 Octapole moment (field-independent basis, Debye-Ang**2):
  XXX=            -95.5659  YYY=             -4.3925  ZZZ=             -0.7271  XYY=            -36.3974
  XXY=            -24.0821  XXZ=            -10.6745  XZZ=            -25.8610  YZZ=              1.5372
  YYZ=              3.8441  XYZ=             -1.1661
 Hexadecapole moment (field-independent basis, Debye-Ang**3):
 XXXX=          -3105.2807 YYYY=           -402.2101 ZZZZ=           -161.8226 XXXY=             -3.5628
 XXXZ=             80.1842 YYYX=            -13.8757 YYYZ=             29.1690 ZZZX=             20.7210
 ZZZY=             16.6554 XXYY=           -578.2043 XXZZ=           -560.3191 YYZZ=            -98.5504
 XXYZ=             23.4339 YYXZ=             21.9952 ZZXY=             -2.7714
 N-N= 1.345037308122D+02 E-N=-7.261723767724D+02  KE= 1.841185613915D+02
   1 Symmetry operations used in ECPInt.
 ECPInt:  NShTT=     780 NPrTT=    3579 LenC2=     766 LenP2D=    2851.
 LDataN:  DoStor=T MaxTD1= 6 Len=  172
 Calling FoFJK, ICntrl=      2127 FMM=F ISym2X=0 I1Cent= 0 IOpClX= 0 NMat=1 NMatS=1 NMatT=0.
 ***** Axes restored to original set *****
 -------------------------------------------------------------------
 Center     Atomic                   Forces (Hartrees/Bohr)
 Number     Number              X              Y              Z
 -------------------------------------------------------------------
      1        6           0.002307256    0.001624850   -0.000079161
      2        6           0.007010305    0.001628288   -0.000731605
      3        1          -0.000527387    0.000663355   -0.000353639
      4        1          -0.001168341   -0.000381104    0.000040334
      5        1           0.000798556   -0.000880711    0.000444135
      6       50          -0.005867775   -0.002999072    0.000651589
      7       50           0.000417597    0.001503091   -0.000153141
      8       35          -0.003797751   -0.001425202    0.000288193
      9        9           0.000984157   -0.000091939   -0.000103397
     10        1          -0.000156617    0.000358443   -0.000003309
 -------------------------------------------------------------------
 Cartesian Forces:  Max     0.007010305 RMS     0.002067618

 GradGradGradGradGradGradGradGradGradGradGradGradGradGradGradGradGradGrad
 Berny optimization.
 Internal  Forces:  Max     0.006713469 RMS     0.001448803
 Search for a local minimum.
 Step number   1 out of a maximum of   43
 All quantities printed in internal units (Hartrees-Bohrs-Radians)
 Mixed Optimization -- RFO/linear search
 Second derivative matrix not updated -- first step.
     Eigenvalues ---    0.00230   0.00230   0.01687   0.02799   0.03168
     Eigenvalues ---    0.03169   0.05580   0.07114   0.12124   0.12155
     Eigenvalues ---    0.12326   0.12410   0.12580   0.15992   0.16000
     Eigenvalues ---    0.16000   0.16740   0.22003   0.23160   0.25000
     Eigenvalues ---    0.25000   0.36640   0.49769   0.623331000.00000
     Eigenvalues --- 1000.000001000.000001000.000001000.000001000.00000
     Eigenvalues --- 1000.000001000.000001000.00000
 RFO step:  Lambda=-5.13023249D-04 EMin= 2.30000000D-03
 Linear search not attempted -- first point.
 Iteration  1 RMS(Cart)=  0.01606794 RMS(Int)=  0.00002661
 Iteration  2 RMS(Cart)=  0.00002868 RMS(Int)=  0.00001027
 Iteration  3 RMS(Cart)=  0.00000000 RMS(Int)=  0.00001027
 Variable       Old X    -DE/DX   Delta X   Delta X   Delta X     New X
                                 (Linear)    (Quad)   (Total)
    R1        2.49141  -0.00005   0.00000  -0.00007  -0.00007   2.49134
    R2        3.65237  -0.00407   0.00000  -0.02422  -0.02422   3.62815
    R3        2.60099  -0.00072   0.00000  -0.00144  -0.00144   2.59955
    R4        4.05255   0.00671   0.00000   0.05315   0.05315   4.10570
    R5        2.03092  -0.00036   0.00000  -0.00098  -0.00098   2.02994
    R6        3.24207   0.00091   0.00000   0.00733   0.00733   3.24940
    R7        3.25880   0.00120   0.00000   0.00984   0.00984   3.26864
    R8        3.26088   0.00123   0.00000   0.01014   0.01014   3.27102
    R9        5.27129  -0.00033   0.00000  -0.00461  -0.00461   5.26668
    A1        2.22627  -0.00051   0.00000  -0.00201  -0.00201   2.22426
    A2        2.13582   0.00114   0.00000   0.00457   0.00457   2.14039
    A3        1.92103  -0.00064   0.00000  -0.00255  -0.00255   1.91849
    A4        2.18127   0.00013   0.00000   0.00056   0.00056   2.18183
    A5        2.04048  -0.00022   0.00000  -0.00130  -0.00130   2.03918
    A6        2.06059   0.00009   0.00000   0.00065   0.00064   2.06123
    A7        1.80186   0.00007   0.00000   0.00192   0.00192   1.80378
    A8        1.98200  -0.00004   0.00000   0.00054   0.00054   1.98254
    A9        2.05109   0.00008   0.00000   0.00195   0.00195   2.05304
   A10        1.77513   0.00008   0.00000   0.00501   0.00497   1.78010
   A11        1.91018   0.00041   0.00000   0.00456   0.00454   1.91472
   A12        1.92098   0.00065   0.00000   0.00599   0.00598   1.92696
    D1        3.10856  -0.00003   0.00000  -0.00141  -0.00141   3.10715
    D2        0.01219   0.00001   0.00000   0.00104   0.00103   0.01322
    D3       -0.01964  -0.00006   0.00000  -0.00256  -0.00255  -0.02220
    D4       -3.11602  -0.00002   0.00000  -0.00011  -0.00011  -3.11613
    D5        0.53520  -0.00003   0.00000   0.00326   0.00326   0.53846
    D6        2.77526   0.00010   0.00000   0.00751   0.00751   2.78277
    D7       -2.65208  -0.00007   0.00000   0.00074   0.00074  -2.65134
    D8       -0.41202   0.00005   0.00000   0.00499   0.00499  -0.40703
    D9        2.99601   0.00027   0.00000   0.00625   0.00627   3.00228
   D10        1.05905  -0.00038   0.00000  -0.00518  -0.00520   1.05385
   D11       -1.18247   0.00039   0.00000   0.01098   0.01100  -1.17147
   D12       -3.11944  -0.00025   0.00000  -0.00045  -0.00047  -3.11990
         Item               Value     Threshold  Converged?
 Maximum Force            0.006713     0.000450     NO 
 RMS     Force            0.001449     0.000300     NO 
 Maximum Displacement     0.037223     0.001800     NO 
 RMS     Displacement     0.016069     0.001200     NO 
 Predicted change in Energy=-2.576323D-04
 GradGradGradGradGradGradGradGradGradGradGradGradGradGradGradGradGradGrad

                          Input orientation:                          
 ---------------------------------------------------------------------
 Center     Atomic      Atomic             Coordinates (Angstroms)
 Number     Number       Type             X           Y           Z
 ---------------------------------------------------------------------
      1          6           0        2.295742    2.930542   -0.034763
      2          6           0        1.926181    1.666939    0.034518
      3          1           0       -1.034050    2.188762   -0.571198
      4          1           0       -2.095264   -2.181565   -0.138745
      5          1           0        0.480485   -2.728796    0.407381
      6         50           0       -0.123690    0.977307    0.241408
      7         50           0       -0.495746   -1.668560   -0.551291
      8         35           0        4.083525    3.618323   -0.164895
      9          9           0        1.394649    3.969588   -0.007329
     10          1           0        2.709289    0.931671    0.029391
 ---------------------------------------------------------------------
                    Distance matrix (angstroms):
                    1          2          3          4          5
     1  C    0.000000
     2  C    1.318358   0.000000
     3  H    3.453333   3.066294   0.000000
     4  H    6.739835   5.568934   4.518069   0.000000
     5  H    5.959761   4.642365   5.237729   2.689274   0.000000
     6  Sn   3.121706   2.172641   1.719508   3.743005   3.758693
     7  Sn   5.404715   4.163467   3.894752   1.729690   1.730947
     8  Br   1.919934   2.915784   5.329006   8.474480   7.320882
     9  F    1.375623   2.363572   3.063963   7.073432   6.773184
    10  H    2.042210   1.074199   3.994192   5.727498   4.302262
                    6          7          8          9         10
     6  Sn   0.000000
     7  Sn   2.787007   0.000000
     8  Br   4.984045   7.005009   0.000000
     9  F    3.364665   5.971449   2.716297   0.000000
    10  H    2.841268   4.167810   3.023966   3.310373   0.000000
 Stoichiometry    C2H4BrFSn2
 Framework group  C1[X(C2H4BrFSn2)]
 Deg. of freedom    24
 Full point group                 C1      NOp   1
 Largest Abelian subgroup         C1      NOp   1
 Largest concise Abelian subgroup C1      NOp   1
                         Standard orientation:                         
 ---------------------------------------------------------------------
 Center     Atomic      Atomic             Coordinates (Angstroms)
 Number     Number       Type             X           Y           Z
 ---------------------------------------------------------------------
      1          6           0        2.385467    0.213115   -0.061783
      2          6           0        1.183111   -0.260411    0.199327
      3          1           0       -0.340080    2.094128   -1.040912
      4          1           0       -4.351361    0.348008    0.087644
      5          1           0       -3.096613   -1.752079    1.204533
      6         50           0       -0.650632    0.904182    0.160876
      7         50           0       -2.950348   -0.645268   -0.118251
      8         35           0        4.053036   -0.736244    0.002076
      9          9           0        2.605327    1.523153   -0.419278
     10          1           0        1.121374   -1.291829    0.493043
 ---------------------------------------------------------------------
 Rotational constants (GHZ):      1.9868324      0.1923909      0.1767635
 Standard basis: SDD (6D, 10F)
 There are    65 symmetry adapted basis functions of A   symmetry.
 Integral buffers will be    131072 words long.
 Raffenetti 1 integral format.
 Two-electron integral symmetry is turned on.
    65 basis functions,   139 primitive gaussians,    65 cartesian basis functions
    20 alpha electrons       20 beta electrons
       nuclear repulsion energy       134.3986128296 Hartrees.
 NAtoms=   10 NActive=   10 NUniq=   10 SFac= 7.50D-01 NAtFMM=   80 NAOKFM=F Big=F
 One-electron integrals computed using PRISM.
   1 Symmetry operations used in ECPInt.
 ECPInt:  NShTT=     780 NPrTT=    3579 LenC2=     766 LenP2D=    2848.
 LDataN:  DoStor=T MaxTD1= 5 Len=  102
 NBasis=    65 RedAO= T  NBF=    65
 NBsUse=    65 1.00D-06 NBFU=    65
 Initial guess read from the read-write file.
 B after Tr=     0.000000    0.000000    0.000000
         Rot=    1.000000    0.000000    0.000000    0.000000 Ang=   0.00 deg.
 Initial guess orbital symmetries:
       Occupied  (A) (A) (A) (A) (A) (A) (A) (A) (A) (A) (A) (A)
                 (A) (A) (A) (A) (A) (A) (A) (A)
       Virtual   (A) (A) (A) (A) (A) (A) (A) (A) (A) (A) (A) (A)
                 (A) (A) (A) (A) (A) (A) (A) (A) (A) (A) (A) (A)
                 (A) (A) (A) (A) (A) (A) (A) (A) (A) (A) (A) (A)
                 (A) (A) (A) (A) (A) (A) (A) (A) (A)
 Harris functional with IExCor=  205 diagonalized for initial guess.
 ExpMin= 3.61D-02 ExpMax= 9.99D+03 ExpMxC= 1.51D+03 IAcc=3 IRadAn=         0 AccDes= 0.00D+00
 HarFok:  IExCor=  205 AccDes= 0.00D+00 IRadAn=         0 IDoV= 1
 ScaDFX=  1.000000  1.000000  1.000000  1.000000
 Defaulting to unpruned grid for atomic number  50.
 Defaulting to unpruned grid for atomic number  50.
 Defaulting to unpruned grid for atomic number  50.
 Defaulting to unpruned grid for atomic number  50.
 Defaulting to unpruned grid for atomic number  50.
 Defaulting to unpruned grid for atomic number  50.
 Defaulting to unpruned grid for atomic number  50.
 Defaulting to unpruned grid for atomic number  50.
 Defaulting to unpruned grid for atomic number  50.
 Defaulting to unpruned grid for atomic number  50.
 Defaulting to unpruned grid for atomic number  50.
 Defaulting to unpruned grid for atomic number  50.
 Defaulting to unpruned grid for atomic number  50.
 Defaulting to unpruned grid for atomic number  50.
 Defaulting to unpruned grid for atomic number  50.
 Defaulting to unpruned grid for atomic number  50.
 Defaulting to unpruned grid for atomic number  50.
 Defaulting to unpruned grid for atomic number  50.
 Defaulting to unpruned grid for atomic number  50.
 Defaulting to unpruned grid for atomic number  50.
 FoFCou: FMM=F IPFlag=           0 FMFlag=      100000 FMFlg1=           0
         NFxFlg=           0 DoJE=T BraDBF=F KetDBF=T FulRan=T
         Omega=  0.000000  0.000000  1.000000  0.000000  0.000000 ICntrl=     500 IOpCl=  0
         NMat0=    1 NMatS0=    1 NMatT0=    0 NMatD0=    1 NMtDS0=    0 NMtDT0=    0
         I1Cent=           4 NGrid=           0.
 Petite list used in FoFCou.
 Requested convergence on RMS density matrix=1.00D-08 within 128 cycles.
 Requested convergence on MAX density matrix=1.00D-06.
 Requested convergence on             energy=1.00D-06.
 No special actions if energy rises.
 Keep R1 ints in memory in canonical form, NReq=3134234.
 SCF Done:  E(RHF) =  -197.001915999     A.U. after   12 cycles
             Convg  =    0.2959D-08             -V/T =  2.0700
   1 Symmetry operations used in ECPInt.
 ECPInt:  NShTT=     780 NPrTT=    3579 LenC2=     766 LenP2D=    2848.
 LDataN:  DoStor=T MaxTD1= 6 Len=  172
 Calling FoFJK, ICntrl=      2127 FMM=F ISym2X=0 I1Cent= 0 IOpClX= 0 NMat=1 NMatS=1 NMatT=0.
 ***** Axes restored to original set *****
 -------------------------------------------------------------------
 Center     Atomic                   Forces (Hartrees/Bohr)
 Number     Number              X              Y              Z
 -------------------------------------------------------------------
      1        6          -0.000939238   -0.000505363    0.000136952
      2        6          -0.000669015   -0.000159158   -0.000116098
      3        1           0.000358959   -0.000052389   -0.000099212
      4        1           0.000277269    0.000077405   -0.000010182
      5        1          -0.000250339    0.000142251   -0.000260825
      6       50           0.000697097    0.000567942    0.000259970
      7       50           0.000153163   -0.000104967    0.000215179
      8       35           0.001345412    0.000417933   -0.000084508
      9        9          -0.000734243   -0.000007707   -0.000023416
     10        1          -0.000239066   -0.000375946   -0.000017861
 -------------------------------------------------------------------
 Cartesian Forces:  Max     0.001345412 RMS     0.000436096

 GradGradGradGradGradGradGradGradGradGradGradGradGradGradGradGradGradGrad
 Berny optimization.
 Using GEDIIS/GDIIS optimizer.
 Internal  Forces:  Max     0.001408251 RMS     0.000489169
 Search for a local minimum.
 Step number   2 out of a maximum of   43
 All quantities printed in internal units (Hartrees-Bohrs-Radians)
 Mixed Optimization -- En-DIIS/RFO-DIIS
 Update second derivatives using D2CorX and points    1    2
 DE= -1.90D-04 DEPred=-2.58D-04 R= 7.39D-01
 SS=  1.41D+00  RLast= 6.40D-02 DXNew= 5.0454D-01 1.9212D-01
 Trust test= 7.39D-01 RLast= 6.40D-02 DXMaxT set to 3.00D-01
 Use linear search instead of GDIIS.
     Eigenvalues ---    0.00230   0.00231   0.01687   0.02796   0.03166
     Eigenvalues ---    0.03169   0.05467   0.07095   0.12126   0.12172
     Eigenvalues ---    0.12207   0.12413   0.13352   0.15935   0.15999
     Eigenvalues ---    0.16024   0.18409   0.22583   0.23195   0.24998
     Eigenvalues ---    0.26158   0.36648   0.49916   0.623381000.00000
     Eigenvalues --- 1000.000001000.000001000.000001000.000001000.00000
     Eigenvalues --- 1000.000001000.000001000.00000
 RFO step:  Lambda=-1.98609119D-05 EMin= 2.29959207D-03
 Quartic linear search produced a step of -0.20168.
 Iteration  1 RMS(Cart)=  0.01361286 RMS(Int)=  0.00006398
 Iteration  2 RMS(Cart)=  0.00008614 RMS(Int)=  0.00000856
 Iteration  3 RMS(Cart)=  0.00000000 RMS(Int)=  0.00000856
 Variable       Old X    -DE/DX   Delta X   Delta X   Delta X     New X
                                 (Linear)    (Quad)   (Total)
    R1        2.49134  -0.00018   0.00001  -0.00025  -0.00024   2.49110
    R2        3.62815   0.00141   0.00488   0.00099   0.00587   3.63402
    R3        2.59955   0.00047   0.00029   0.00042   0.00071   2.60026
    R4        4.10570  -0.00136  -0.01072   0.00389  -0.00683   4.09887
    R5        2.02994   0.00008   0.00020  -0.00005   0.00014   2.03009
    R6        3.24940  -0.00018  -0.00148   0.00056  -0.00091   3.24848
    R7        3.26864  -0.00028  -0.00198   0.00046  -0.00152   3.26712
    R8        3.27102  -0.00037  -0.00205  -0.00007  -0.00212   3.26890
    R9        5.26668  -0.00012   0.00093  -0.00238  -0.00145   5.26523
    A1        2.22426   0.00026   0.00041   0.00034   0.00075   2.22501
    A2        2.14039  -0.00085  -0.00092  -0.00162  -0.00255   2.13784
    A3        1.91849   0.00059   0.00051   0.00130   0.00181   1.92030
    A4        2.18183  -0.00092  -0.00011  -0.00321  -0.00332   2.17851
    A5        2.03918   0.00090   0.00026   0.00359   0.00385   2.04304
    A6        2.06123   0.00002  -0.00013  -0.00037  -0.00050   2.06073
    A7        1.80378  -0.00028  -0.00039  -0.00530  -0.00571   1.79807
    A8        1.98254  -0.00036  -0.00011  -0.00286  -0.00299   1.97956
    A9        2.05304   0.00018  -0.00039  -0.00203  -0.00245   2.05058
   A10        1.78010  -0.00010  -0.00100   0.00058  -0.00041   1.77969
   A11        1.91472  -0.00009  -0.00092   0.00059  -0.00032   1.91440
   A12        1.92696   0.00031  -0.00121   0.00294   0.00174   1.92870
    D1        3.10715  -0.00001   0.00028  -0.00031  -0.00003   3.10712
    D2        0.01322  -0.00002  -0.00021  -0.00060  -0.00081   0.01241
    D3       -0.02220  -0.00008   0.00052  -0.00215  -0.00163  -0.02383
    D4       -3.11613  -0.00008   0.00002  -0.00243  -0.00241  -3.11854
    D5        0.53846   0.00007  -0.00066  -0.00384  -0.00451   0.53395
    D6        2.78277  -0.00014  -0.00152  -0.01225  -0.01376   2.76902
    D7       -2.65134   0.00010  -0.00015  -0.00345  -0.00361  -2.65496
    D8       -0.40703  -0.00012  -0.00101  -0.01187  -0.01286  -0.41989
    D9        3.00228   0.00023  -0.00126  -0.00793  -0.00920   2.99308
   D10        1.05385   0.00024   0.00105  -0.01051  -0.00946   1.04438
   D11       -1.17147  -0.00032  -0.00222  -0.01949  -0.02171  -1.19318
   D12       -3.11990  -0.00032   0.00009  -0.02207  -0.02197   3.14131
         Item               Value     Threshold  Converged?
 Maximum Force            0.001408     0.000450     NO 
 RMS     Force            0.000489     0.000300     NO 
 Maximum Displacement     0.036743     0.001800     NO 
 RMS     Displacement     0.013626     0.001200     NO 
 Predicted change in Energy=-2.212426D-05
 GradGradGradGradGradGradGradGradGradGradGradGradGradGradGradGradGradGrad

                          Input orientation:                          
 ---------------------------------------------------------------------
 Center     Atomic      Atomic             Coordinates (Angstroms)
 Number     Number       Type             X           Y           Z
 ---------------------------------------------------------------------
      1          6           0        2.291968    2.926442   -0.036598
      2          6           0        1.923985    1.663123    0.043074
      3          1           0       -1.022032    2.194329   -0.572389
      4          1           0       -2.091768   -2.179185   -0.129367
      5          1           0        0.487984   -2.726003    0.387937
      6         50           0       -0.124421    0.980491    0.249763
      7         50           0       -0.497821   -1.661147   -0.553641
      8         35           0        4.081552    3.617991   -0.167892
      9          9           0        1.386360    3.962327   -0.022893
     10          1           0        2.705314    0.925843    0.046484
 ---------------------------------------------------------------------
                    Distance matrix (angstroms):
                    1          2          3          4          5
     1  C    0.000000
     2  C    1.318231   0.000000
     3  H    3.435936   3.056141   0.000000
     4  H    6.730020   5.560517   4.524183   0.000000
     5  H    5.948506   4.630924   5.235652   2.687329   0.000000
     6  Sn   3.115713   2.169027   1.719024   3.741356   3.759286
     7  Sn   5.394092   4.155958   3.890995   1.728884   1.729827
     8  Br   1.923042   2.919094   5.313851   8.468685   7.312246
     9  F    1.375997   2.362145   3.037781   7.058815   6.760889
    10  H    2.044543   1.074275   3.985620   5.717003   4.285921
                    6          7          8          9         10
     6  Sn   0.000000
     7  Sn   2.786240   0.000000
     8  Br   4.982074   6.999198   0.000000
     9  F    3.353826   5.954434   2.720965   0.000000
    10  H    2.837553   4.160858   3.031114   3.311296   0.000000
 Stoichiometry    C2H4BrFSn2
 Framework group  C1[X(C2H4BrFSn2)]
 Deg. of freedom    24
 Full point group                 C1      NOp   1
 Largest Abelian subgroup         C1      NOp   1
 Largest concise Abelian subgroup C1      NOp   1
                         Standard orientation:                         
 ---------------------------------------------------------------------
 Center     Atomic      Atomic             Coordinates (Angstroms)
 Number     Number       Type             X           Y           Z
 ---------------------------------------------------------------------
      1          6           0        2.378851    0.211927   -0.063175
      2          6           0        1.178553   -0.260004    0.209406
      3          1           0       -0.330714    2.081263   -1.047806
      4          1           0       -4.348053    0.342344    0.094726
      5          1           0       -3.089863   -1.763509    1.192033
      6         50           0       -0.650033    0.905755    0.165150
      7         50           0       -2.946216   -0.646312   -0.120803
      8         35           0        4.051330   -0.734941    0.002766
      9          9           0        2.591628    1.518572   -0.438371
     10          1           0        1.115424   -1.288005    0.514849
 ---------------------------------------------------------------------
 Rotational constants (GHZ):      1.9817765      0.1927874      0.1771323
 Standard basis: SDD (6D, 10F)
 There are    65 symmetry adapted basis functions of A   symmetry.
 Integral buffers will be    131072 words long.
 Raffenetti 1 integral format.
 Two-electron integral symmetry is turned on.
    65 basis functions,   139 primitive gaussians,    65 cartesian basis functions
    20 alpha electrons       20 beta electrons
       nuclear repulsion energy       134.4433148457 Hartrees.
 NAtoms=   10 NActive=   10 NUniq=   10 SFac= 7.50D-01 NAtFMM=   80 NAOKFM=F Big=F
 One-electron integrals computed using PRISM.
   1 Symmetry operations used in ECPInt.
 ECPInt:  NShTT=     780 NPrTT=    3579 LenC2=     766 LenP2D=    2848.
 LDataN:  DoStor=T MaxTD1= 5 Len=  102
 NBasis=    65 RedAO= T  NBF=    65
 NBsUse=    65 1.00D-06 NBFU=    65
 Initial guess read from the read-write file.
 B after Tr=     0.000000    0.000000    0.000000
         Rot=    1.000000    0.000000    0.000000    0.000000 Ang=   0.00 deg.
 Initial guess orbital symmetries:
       Occupied  (A) (A) (A) (A) (A) (A) (A) (A) (A) (A) (A) (A)
                 (A) (A) (A) (A) (A) (A) (A) (A)
       Virtual   (A) (A) (A) (A) (A) (A) (A) (A) (A) (A) (A) (A)
                 (A) (A) (A) (A) (A) (A) (A) (A) (A) (A) (A) (A)
                 (A) (A) (A) (A) (A) (A) (A) (A) (A) (A) (A) (A)
                 (A) (A) (A) (A) (A) (A) (A) (A) (A)
 Harris functional with IExCor=  205 diagonalized for initial guess.
 ExpMin= 3.61D-02 ExpMax= 9.99D+03 ExpMxC= 1.51D+03 IAcc=3 IRadAn=         0 AccDes= 0.00D+00
 HarFok:  IExCor=  205 AccDes= 0.00D+00 IRadAn=         0 IDoV= 1
 ScaDFX=  1.000000  1.000000  1.000000  1.000000
 Defaulting to unpruned grid for atomic number  50.
 Defaulting to unpruned grid for atomic number  50.
 Defaulting to unpruned grid for atomic number  50.
 Defaulting to unpruned grid for atomic number  50.
 Defaulting to unpruned grid for atomic number  50.
 Defaulting to unpruned grid for atomic number  50.
 Defaulting to unpruned grid for atomic number  50.
 Defaulting to unpruned grid for atomic number  50.
 Defaulting to unpruned grid for atomic number  50.
 Defaulting to unpruned grid for atomic number  50.
 Defaulting to unpruned grid for atomic number  50.
 Defaulting to unpruned grid for atomic number  50.
 Defaulting to unpruned grid for atomic number  50.
 Defaulting to unpruned grid for atomic number  50.
 Defaulting to unpruned grid for atomic number  50.
 Defaulting to unpruned grid for atomic number  50.
 Defaulting to unpruned grid for atomic number  50.
 Defaulting to unpruned grid for atomic number  50.
 Defaulting to unpruned grid for atomic number  50.
 Defaulting to unpruned grid for atomic number  50.
 FoFCou: FMM=F IPFlag=           0 FMFlag=      100000 FMFlg1=           0
         NFxFlg=           0 DoJE=T BraDBF=F KetDBF=T FulRan=T
         Omega=  0.000000  0.000000  1.000000  0.000000  0.000000 ICntrl=     500 IOpCl=  0
         NMat0=    1 NMatS0=    1 NMatT0=    0 NMatD0=    1 NMtDS0=    0 NMtDT0=    0
         I1Cent=           4 NGrid=           0.
 Petite list used in FoFCou.
 Requested convergence on RMS density matrix=1.00D-08 within 128 cycles.
 Requested convergence on MAX density matrix=1.00D-06.
 Requested convergence on             energy=1.00D-06.
 No special actions if energy rises.
 Keep R1 ints in memory in canonical form, NReq=3134234.
 SCF Done:  E(RHF) =  -197.001937076     A.U. after   12 cycles
             Convg  =    0.1750D-08             -V/T =  2.0700
   1 Symmetry operations used in ECPInt.
 ECPInt:  NShTT=     780 NPrTT=    3579 LenC2=     766 LenP2D=    2848.
 LDataN:  DoStor=T MaxTD1= 6 Len=  172
 Calling FoFJK, ICntrl=      2127 FMM=F ISym2X=0 I1Cent= 0 IOpClX= 0 NMat=1 NMatS=1 NMatT=0.
 ***** Axes restored to original set *****
 -------------------------------------------------------------------
 Center     Atomic                   Forces (Hartrees/Bohr)
 Number     Number              X              Y              Z
 -------------------------------------------------------------------
      1        6          -0.000196655   -0.000140778   -0.000076928
      2        6           0.000258692   -0.000253624   -0.000103302
      3        1          -0.000025477   -0.000081376    0.000060820
      4        1           0.000090426   -0.000069705   -0.000125131
      5        1          -0.000090458   -0.000068198   -0.000037118
      6       50          -0.000040972    0.000384367   -0.000029467
      7       50           0.000038754    0.000034293    0.000195038
      8       35           0.000018558    0.000030598    0.000008742
      9        9          -0.000023269    0.000150509    0.000067155
     10        1          -0.000029600    0.000013915    0.000040191
 -------------------------------------------------------------------
 Cartesian Forces:  Max     0.000384367 RMS     0.000126879

 GradGradGradGradGradGradGradGradGradGradGradGradGradGradGradGradGradGrad
 Berny optimization.
 Using GEDIIS/GDIIS optimizer.
 Internal  Forces:  Max     0.000401434 RMS     0.000139375
 Search for a local minimum.
 Step number   3 out of a maximum of   43
 All quantities printed in internal units (Hartrees-Bohrs-Radians)
 Mixed Optimization -- En-DIIS/RFO-DIIS
 Swaping is turned off.
 Update second derivatives using D2CorX and points    1    2    3
 DE= -2.11D-05 DEPred=-2.21D-05 R= 9.53D-01
 SS=  1.41D+00  RLast= 4.13D-02 DXNew= 5.0454D-01 1.2384D-01
 Trust test= 9.53D-01 RLast= 4.13D-02 DXMaxT set to 3.00D-01
     Eigenvalues ---    0.00228   0.00311   0.01692   0.02576   0.03167
     Eigenvalues ---    0.03251   0.05425   0.07158   0.12057   0.12141
     Eigenvalues ---    0.12202   0.12409   0.13271   0.14719   0.15998
     Eigenvalues ---    0.16206   0.18467   0.20508   0.23238   0.25000
     Eigenvalues ---    0.27139   0.36663   0.49659   0.623191000.00000
     Eigenvalues --- 1000.000001000.000001000.000001000.000001000.00000
     Eigenvalues --- 1000.000001000.000001000.00000
 En-DIIS/RFO-DIIS IScMMF=        0 using points:     3    2
 RFO step:  Lambda=-2.11693188D-06.
 DIIS coeffs:      0.93735      0.06265
 Iteration  1 RMS(Cart)=  0.01788180 RMS(Int)=  0.00019437
 Iteration  2 RMS(Cart)=  0.00018874 RMS(Int)=  0.00000252
 Iteration  3 RMS(Cart)=  0.00000001 RMS(Int)=  0.00000252
 Variable       Old X    -DE/DX   Delta X   Delta X   Delta X     New X
                                  (DIIS)     (GDIIS)  (Total)
    R1        2.49110  -0.00002   0.00001  -0.00014  -0.00012   2.49097
    R2        3.63402   0.00003  -0.00037   0.00214   0.00178   3.63580
    R3        2.60026   0.00013  -0.00004   0.00052   0.00048   2.60074
    R4        4.09887  -0.00003   0.00043  -0.00181  -0.00138   4.09749
    R5        2.03009  -0.00003  -0.00001  -0.00004  -0.00005   2.03004
    R6        3.24848  -0.00007   0.00006  -0.00075  -0.00069   3.24779
    R7        3.26712  -0.00009   0.00010  -0.00112  -0.00102   3.26609
    R8        3.26890  -0.00003   0.00013  -0.00090  -0.00077   3.26813
    R9        5.26523   0.00008   0.00009   0.00028   0.00037   5.26560
    A1        2.22501  -0.00001  -0.00005   0.00023   0.00018   2.22519
    A2        2.13784   0.00011   0.00016  -0.00065  -0.00049   2.13735
    A3        1.92030  -0.00009  -0.00011   0.00041   0.00030   1.92059
    A4        2.17851  -0.00025   0.00021  -0.00257  -0.00236   2.17615
    A5        2.04304   0.00014  -0.00024   0.00231   0.00207   2.04510
    A6        2.06073   0.00011   0.00003   0.00022   0.00026   2.06098
    A7        1.79807   0.00017   0.00036  -0.00214  -0.00179   1.79628
    A8        1.97956  -0.00040   0.00019  -0.00309  -0.00291   1.97665
    A9        2.05058   0.00006   0.00015  -0.00125  -0.00110   2.04948
   A10        1.77969  -0.00016   0.00003   0.00002   0.00004   1.77973
   A11        1.91440   0.00035   0.00002   0.00244   0.00246   1.91686
   A12        1.92870   0.00027  -0.00011   0.00297   0.00285   1.93155
    D1        3.10712  -0.00003   0.00000  -0.00116  -0.00116   3.10597
    D2        0.01241   0.00000   0.00005  -0.00015  -0.00010   0.01231
    D3       -0.02383   0.00007   0.00010   0.00082   0.00092  -0.02291
    D4       -3.11854   0.00009   0.00015   0.00182   0.00197  -3.11657
    D5        0.53395   0.00005   0.00028   0.00641   0.00669   0.54064
    D6        2.76902   0.00001   0.00086   0.00131   0.00218   2.77119
    D7       -2.65496   0.00003   0.00023   0.00544   0.00567  -2.64929
    D8       -0.41989  -0.00002   0.00081   0.00035   0.00115  -0.41874
    D9        2.99308   0.00018   0.00058   0.03066   0.03124   3.02432
   D10        1.04438   0.00003   0.00059   0.02774   0.02832   1.07271
   D11       -1.19318   0.00013   0.00136   0.02407   0.02543  -1.16775
   D12        3.14131  -0.00002   0.00138   0.02114   0.02251  -3.11936
         Item               Value     Threshold  Converged?
 Maximum Force            0.000401     0.000450     YES
 RMS     Force            0.000139     0.000300     YES
 Maximum Displacement     0.061007     0.001800     NO 
 RMS     Displacement     0.017879     0.001200     NO 
 Predicted change in Energy=-6.973332D-06
 GradGradGradGradGradGradGradGradGradGradGradGradGradGradGradGradGradGrad

                          Input orientation:                          
 ---------------------------------------------------------------------
 Center     Atomic      Atomic             Coordinates (Angstroms)
 Number     Number       Type             X           Y           Z
 ---------------------------------------------------------------------
      1          6           0        2.291154    2.927813   -0.038602
      2          6           0        1.927335    1.663240    0.039199
      3          1           0       -1.019139    2.190940   -0.562041
      4          1           0       -2.092967   -2.174036   -0.161651
      5          1           0        0.471017   -2.733747    0.413410
      6         50           0       -0.118450    0.979177    0.259041
      7         50           0       -0.487860   -1.662268   -0.547517
      8         35           0        4.078596    3.625616   -0.179420
      9          9           0        1.382201    3.960872   -0.012947
     10          1           0        2.709233    0.926606    0.035006
 ---------------------------------------------------------------------
                    Distance matrix (angstroms):
                    1          2          3          4          5
     1  C    0.000000
     2  C    1.318166   0.000000
     3  H    3.431473   3.053140   0.000000
     4  H    6.727892   5.561282   4.512919   0.000000
     5  H    5.964099   4.646977   5.236851   2.686630   0.000000
     6  Sn   3.113192   2.168296   1.718658   3.744123   3.762594
     7  Sn   5.389876   4.151676   3.889689   1.728342   1.729420
     8  Br   1.923982   2.920041   5.309576   8.469030   7.335365
     9  F    1.376250   2.361992   3.033249   7.052376   6.769784
    10  H    2.045737   1.074250   3.981929   5.719596   4.307085
                    6          7          8          9         10
     6  Sn   0.000000
     7  Sn   2.786438   0.000000
     8  Br   4.981072   6.996409   0.000000
     9  F    3.349095   5.950009   2.722252   0.000000
    10  H    2.837031   4.154877   3.034105   3.312112   0.000000
 Stoichiometry    C2H4BrFSn2
 Framework group  C1[X(C2H4BrFSn2)]
 Deg. of freedom    24
 Full point group                 C1      NOp   1
 Largest Abelian subgroup         C1      NOp   1
 Largest concise Abelian subgroup C1      NOp   1
                         Standard orientation:                         
 ---------------------------------------------------------------------
 Center     Atomic      Atomic             Coordinates (Angstroms)
 Number     Number       Type             X           Y           Z
 ---------------------------------------------------------------------
      1          6           0        2.376368    0.210943   -0.063407
      2          6           0        1.176299   -0.261981    0.208145
      3          1           0       -0.328672    2.075536   -1.053894
      4          1           0       -4.349302    0.345498    0.045167
      5          1           0       -3.114768   -1.734628    1.214349
      6         50           0       -0.649442    0.906907    0.164793
      7         50           0       -2.944397   -0.647563   -0.119876
      8         35           0        4.050396   -0.735108    0.002345
      9          9           0        2.588151    1.519056   -0.434961
     10          1           0        1.111464   -1.290122    0.512667
 ---------------------------------------------------------------------
 Rotational constants (GHZ):      1.9792183      0.1929627      0.1772541
 Standard basis: SDD (6D, 10F)
 There are    65 symmetry adapted basis functions of A   symmetry.
 Integral buffers will be    131072 words long.
 Raffenetti 1 integral format.
 Two-electron integral symmetry is turned on.
    65 basis functions,   139 primitive gaussians,    65 cartesian basis functions
    20 alpha electrons       20 beta electrons
       nuclear repulsion energy       134.4469697188 Hartrees.
 NAtoms=   10 NActive=   10 NUniq=   10 SFac= 7.50D-01 NAtFMM=   80 NAOKFM=F Big=F
 One-electron integrals computed using PRISM.
   1 Symmetry operations used in ECPInt.
 ECPInt:  NShTT=     780 NPrTT=    3579 LenC2=     766 LenP2D=    2848.
 LDataN:  DoStor=T MaxTD1= 5 Len=  102
 NBasis=    65 RedAO= T  NBF=    65
 NBsUse=    65 1.00D-06 NBFU=    65
 Initial guess read from the read-write file.
 B after Tr=     0.000000    0.000000    0.000000
         Rot=    1.000000    0.000000    0.000000    0.000000 Ang=   0.00 deg.
 Initial guess orbital symmetries:
       Occupied  (A) (A) (A) (A) (A) (A) (A) (A) (A) (A) (A) (A)
                 (A) (A) (A) (A) (A) (A) (A) (A)
       Virtual   (A) (A) (A) (A) (A) (A) (A) (A) (A) (A) (A) (A)
                 (A) (A) (A) (A) (A) (A) (A) (A) (A) (A) (A) (A)
                 (A) (A) (A) (A) (A) (A) (A) (A) (A) (A) (A) (A)
                 (A) (A) (A) (A) (A) (A) (A) (A) (A)
 Harris functional with IExCor=  205 diagonalized for initial guess.
 ExpMin= 3.61D-02 ExpMax= 9.99D+03 ExpMxC= 1.51D+03 IAcc=3 IRadAn=         0 AccDes= 0.00D+00
 HarFok:  IExCor=  205 AccDes= 0.00D+00 IRadAn=         0 IDoV= 1
 ScaDFX=  1.000000  1.000000  1.000000  1.000000
 Defaulting to unpruned grid for atomic number  50.
 Defaulting to unpruned grid for atomic number  50.
 Defaulting to unpruned grid for atomic number  50.
 Defaulting to unpruned grid for atomic number  50.
 Defaulting to unpruned grid for atomic number  50.
 Defaulting to unpruned grid for atomic number  50.
 Defaulting to unpruned grid for atomic number  50.
 Defaulting to unpruned grid for atomic number  50.
 Defaulting to unpruned grid for atomic number  50.
 Defaulting to unpruned grid for atomic number  50.
 Defaulting to unpruned grid for atomic number  50.
 Defaulting to unpruned grid for atomic number  50.
 Defaulting to unpruned grid for atomic number  50.
 Defaulting to unpruned grid for atomic number  50.
 Defaulting to unpruned grid for atomic number  50.
 Defaulting to unpruned grid for atomic number  50.
 Defaulting to unpruned grid for atomic number  50.
 Defaulting to unpruned grid for atomic number  50.
 Defaulting to unpruned grid for atomic number  50.
 Defaulting to unpruned grid for atomic number  50.
 FoFCou: FMM=F IPFlag=           0 FMFlag=      100000 FMFlg1=           0
         NFxFlg=           0 DoJE=T BraDBF=F KetDBF=T FulRan=T
         Omega=  0.000000  0.000000  1.000000  0.000000  0.000000 ICntrl=     500 IOpCl=  0
         NMat0=    1 NMatS0=    1 NMatT0=    0 NMatD0=    1 NMtDS0=    0 NMtDT0=    0
         I1Cent=           4 NGrid=           0.
 Petite list used in FoFCou.
 Requested convergence on RMS density matrix=1.00D-08 within 128 cycles.
 Requested convergence on MAX density matrix=1.00D-06.
 Requested convergence on             energy=1.00D-06.
 No special actions if energy rises.
 Keep R1 ints in memory in canonical form, NReq=3134234.
 SCF Done:  E(RHF) =  -197.001936617     A.U. after   11 cycles
             Convg  =    0.6761D-08             -V/T =  2.0700
   1 Symmetry operations used in ECPInt.
 ECPInt:  NShTT=     780 NPrTT=    3579 LenC2=     766 LenP2D=    2848.
 LDataN:  DoStor=T MaxTD1= 6 Len=  172
 Calling FoFJK, ICntrl=      2127 FMM=F ISym2X=0 I1Cent= 0 IOpClX= 0 NMat=1 NMatS=1 NMatT=0.
 ***** Axes restored to original set *****
 -------------------------------------------------------------------
 Center     Atomic                   Forces (Hartrees/Bohr)
 Number     Number              X              Y              Z
 -------------------------------------------------------------------
      1        6           0.000153553   -0.000023543    0.000050717
      2        6           0.000298205   -0.000211909    0.000166010
      3        1          -0.000116437   -0.000032437   -0.000119432
      4        1          -0.000045515   -0.000088089    0.000091574
      5        1          -0.000002753   -0.000107179   -0.000147846
      6       50          -0.000230588    0.000182813   -0.000082333
      7       50           0.000085207    0.000126511    0.000113771
      8       35          -0.000361305   -0.000094385   -0.000015942
      9        9           0.000157414    0.000081401   -0.000002489
     10        1           0.000062219    0.000166816   -0.000054031
 -------------------------------------------------------------------
 Cartesian Forces:  Max     0.000361305 RMS     0.000141875

 GradGradGradGradGradGradGradGradGradGradGradGradGradGradGradGradGradGrad
 Berny optimization.
 Using GEDIIS/GDIIS optimizer.
 Internal  Forces:  Max     0.000461846 RMS     0.000164469
 Search for a local minimum.
 Step number   4 out of a maximum of   43
 All quantities printed in internal units (Hartrees-Bohrs-Radians)
 Mixed Optimization -- En-DIIS/RFO-DIIS
 Swaping is turned off.
 Update second derivatives using D2CorX and points    1    2    3    4
 DE=  4.58D-07 DEPred=-6.97D-06 R=-6.57D-02
 Trust test=-6.57D-02 RLast= 5.54D-02 DXMaxT set to 1.50D-01
     Eigenvalues ---    0.00233   0.00705   0.01716   0.02069   0.03209
     Eigenvalues ---    0.03280   0.05083   0.07195   0.11074   0.12174
     Eigenvalues ---    0.12242   0.12404   0.12531   0.13115   0.16208
     Eigenvalues ---    0.16450   0.18762   0.20018   0.23209   0.24999
     Eigenvalues ---    0.28483   0.36688   0.49562   0.622891000.00000
     Eigenvalues --- 1000.000001000.000001000.000001000.000001000.00000
     Eigenvalues --- 1000.000001000.000001000.00000
 En-DIIS/RFO-DIIS IScMMF=        0 using points:     4    3    2
 RFO step:  Lambda=-2.58308113D-06.
 DIIS coeffs:      0.48909      0.56114     -0.05024
 Iteration  1 RMS(Cart)=  0.01088016 RMS(Int)=  0.00004899
 Iteration  2 RMS(Cart)=  0.00005597 RMS(Int)=  0.00000033
 Iteration  3 RMS(Cart)=  0.00000000 RMS(Int)=  0.00000033
 Variable       Old X    -DE/DX   Delta X   Delta X   Delta X     New X
                                  (DIIS)     (GDIIS)  (Total)
    R1        2.49097  -0.00005   0.00005  -0.00014  -0.00009   2.49088
    R2        3.63580  -0.00037  -0.00061  -0.00001  -0.00062   3.63518
    R3        2.60074  -0.00004  -0.00021   0.00035   0.00014   2.60088
    R4        4.09749   0.00025   0.00036   0.00077   0.00114   4.09862
    R5        2.03004  -0.00007   0.00003  -0.00016  -0.00012   2.02991
    R6        3.24779   0.00010   0.00031  -0.00014   0.00017   3.24796
    R7        3.26609   0.00009   0.00045  -0.00040   0.00004   3.26614
    R8        3.26813  -0.00002   0.00029  -0.00053  -0.00025   3.26788
    R9        5.26560   0.00004  -0.00026   0.00064   0.00038   5.26598
    A1        2.22519  -0.00004  -0.00005   0.00003  -0.00003   2.22516
    A2        2.13735   0.00024   0.00012   0.00019   0.00031   2.13766
    A3        1.92059  -0.00020  -0.00006  -0.00023  -0.00029   1.92031
    A4        2.17615   0.00001   0.00104  -0.00202  -0.00098   2.17517
    A5        2.04510  -0.00018  -0.00086   0.00124   0.00038   2.04548
    A6        2.06098   0.00017  -0.00016   0.00078   0.00062   2.06161
    A7        1.79628   0.00030   0.00063  -0.00004   0.00058   1.79687
    A8        1.97665  -0.00013   0.00133  -0.00267  -0.00133   1.97532
    A9        2.04948  -0.00016   0.00044  -0.00128  -0.00084   2.04864
   A10        1.77973  -0.00014  -0.00004   0.00005   0.00001   1.77974
   A11        1.91686   0.00005  -0.00127   0.00270   0.00143   1.91828
   A12        1.93155   0.00046  -0.00137   0.00418   0.00281   1.93437
    D1        3.10597   0.00008   0.00059   0.00030   0.00089   3.10686
    D2        0.01231   0.00004   0.00001   0.00036   0.00037   0.01268
    D3       -0.02291   0.00003  -0.00055   0.00160   0.00105  -0.02186
    D4       -3.11657  -0.00001  -0.00113   0.00166   0.00053  -3.11604
    D5        0.54064   0.00006  -0.00364   0.01295   0.00931   0.54994
    D6        2.77119  -0.00002  -0.00180   0.00965   0.00785   2.77904
    D7       -2.64929   0.00009  -0.00308   0.01289   0.00982  -2.63947
    D8       -0.41874   0.00001  -0.00124   0.00960   0.00836  -0.41038
    D9        3.02432  -0.00017  -0.01642   0.00197  -0.01446   3.00987
   D10        1.07271  -0.00027  -0.01495  -0.00183  -0.01678   1.05593
   D11       -1.16775   0.00000  -0.01408  -0.00135  -0.01543  -1.18318
   D12       -3.11936  -0.00011  -0.01260  -0.00516  -0.01776  -3.13712
         Item               Value     Threshold  Converged?
 Maximum Force            0.000462     0.000450     NO 
 RMS     Force            0.000164     0.000300     YES
 Maximum Displacement     0.033774     0.001800     NO 
 RMS     Displacement     0.010877     0.001200     NO 
 Predicted change in Energy=-6.624829D-06
 GradGradGradGradGradGradGradGradGradGradGradGradGradGradGradGradGradGrad

                          Input orientation:                          
 ---------------------------------------------------------------------
 Center     Atomic      Atomic             Coordinates (Angstroms)
 Number     Number       Type             X           Y           Z
 ---------------------------------------------------------------------
      1          6           0        2.291551    2.926850   -0.035184
      2          6           0        1.925146    1.662783    0.037724
      3          1           0       -1.019305    2.192646   -0.577762
      4          1           0       -2.091389   -2.178827   -0.143778
      5          1           0        0.480449   -2.730435    0.403012
      6         50           0       -0.123457    0.983856    0.253124
      7         50           0       -0.492250   -1.660364   -0.545276
      8         35           0        4.080153    3.621357   -0.173036
      9          9           0        1.384995    3.962008   -0.005562
     10          1           0        2.705228    0.924337    0.031216
 ---------------------------------------------------------------------
                    Distance matrix (angstroms):
                    1          2          3          4          5
     1  C    0.000000
     2  C    1.318118   0.000000
     3  H    3.434417   3.054402   0.000000
     4  H    6.729776   5.560886   4.521889   0.000000
     5  H    5.956256   4.639067   5.239075   2.686559   0.000000
     6  Sn   3.112975   2.168897   1.718746   3.746044   3.766049
     7  Sn   5.390016   4.150542   3.889027   1.728366   1.729290
     8  Br   1.923652   2.919672   5.311261   8.469410   7.323589
     9  F    1.376326   2.362218   3.039526   7.057918   6.765643
    10  H    2.045873   1.074184   3.981408   5.715573   4.294791
                    6          7          8          9         10
     6  Sn   0.000000
     7  Sn   2.786638   0.000000
     8  Br   4.980799   6.995856   0.000000
     9  F    3.348393   5.952009   2.721758   0.000000
    10  H    2.838000   4.151733   3.034148   3.312373   0.000000
 Stoichiometry    C2H4BrFSn2
 Framework group  C1[X(C2H4BrFSn2)]
 Deg. of freedom    24
 Full point group                 C1      NOp   1
 Largest Abelian subgroup         C1      NOp   1
 Largest concise Abelian subgroup C1      NOp   1
                         Standard orientation:                         
 ---------------------------------------------------------------------
 Center     Atomic      Atomic             Coordinates (Angstroms)
 Number     Number       Type             X           Y           Z
 ---------------------------------------------------------------------
      1          6           0        2.376439    0.210860   -0.061553
      2          6           0        1.175661   -0.263533    0.203999
      3          1           0       -0.330576    2.073849   -1.059831
      4          1           0       -4.350821    0.339406    0.070131
      5          1           0       -3.102882   -1.753500    1.201501
      6         50           0       -0.649282    0.907761    0.161952
      7         50           0       -2.944491   -0.647483   -0.118379
      8         35           0        4.049772   -0.735906    0.001922
      9          9           0        2.589866    1.521393   -0.423807
     10          1           0        1.109500   -1.293456    0.501913
 ---------------------------------------------------------------------
 Rotational constants (GHZ):      1.9785426      0.1930105      0.1772419
 Standard basis: SDD (6D, 10F)
 There are    65 symmetry adapted basis functions of A   symmetry.
 Integral buffers will be    131072 words long.
 Raffenetti 1 integral format.
 Two-electron integral symmetry is turned on.
    65 basis functions,   139 primitive gaussians,    65 cartesian basis functions
    20 alpha electrons       20 beta electrons
       nuclear repulsion energy       134.4473383231 Hartrees.
 NAtoms=   10 NActive=   10 NUniq=   10 SFac= 7.50D-01 NAtFMM=   80 NAOKFM=F Big=F
 One-electron integrals computed using PRISM.
   1 Symmetry operations used in ECPInt.
 ECPInt:  NShTT=     780 NPrTT=    3579 LenC2=     766 LenP2D=    2848.
 LDataN:  DoStor=T MaxTD1= 5 Len=  102
 NBasis=    65 RedAO= T  NBF=    65
 NBsUse=    65 1.00D-06 NBFU=    65
 Initial guess read from the read-write file.
 B after Tr=     0.000000    0.000000    0.000000
         Rot=    1.000000    0.000000    0.000000    0.000000 Ang=   0.00 deg.
 Initial guess orbital symmetries:
       Occupied  (A) (A) (A) (A) (A) (A) (A) (A) (A) (A) (A) (A)
                 (A) (A) (A) (A) (A) (A) (A) (A)
       Virtual   (A) (A) (A) (A) (A) (A) (A) (A) (A) (A) (A) (A)
                 (A) (A) (A) (A) (A) (A) (A) (A) (A) (A) (A) (A)
                 (A) (A) (A) (A) (A) (A) (A) (A) (A) (A) (A) (A)
                 (A) (A) (A) (A) (A) (A) (A) (A) (A)
 Harris functional with IExCor=  205 diagonalized for initial guess.
 ExpMin= 3.61D-02 ExpMax= 9.99D+03 ExpMxC= 1.51D+03 IAcc=3 IRadAn=         0 AccDes= 0.00D+00
 HarFok:  IExCor=  205 AccDes= 0.00D+00 IRadAn=         0 IDoV= 1
 ScaDFX=  1.000000  1.000000  1.000000  1.000000
 Defaulting to unpruned grid for atomic number  50.
 Defaulting to unpruned grid for atomic number  50.
 Defaulting to unpruned grid for atomic number  50.
 Defaulting to unpruned grid for atomic number  50.
 Defaulting to unpruned grid for atomic number  50.
 Defaulting to unpruned grid for atomic number  50.
 Defaulting to unpruned grid for atomic number  50.
 Defaulting to unpruned grid for atomic number  50.
 Defaulting to unpruned grid for atomic number  50.
 Defaulting to unpruned grid for atomic number  50.
 Defaulting to unpruned grid for atomic number  50.
 Defaulting to unpruned grid for atomic number  50.
 Defaulting to unpruned grid for atomic number  50.
 Defaulting to unpruned grid for atomic number  50.
 Defaulting to unpruned grid for atomic number  50.
 Defaulting to unpruned grid for atomic number  50.
 Defaulting to unpruned grid for atomic number  50.
 Defaulting to unpruned grid for atomic number  50.
 Defaulting to unpruned grid for atomic number  50.
 Defaulting to unpruned grid for atomic number  50.
 FoFCou: FMM=F IPFlag=           0 FMFlag=      100000 FMFlg1=           0
         NFxFlg=           0 DoJE=T BraDBF=F KetDBF=T FulRan=T
         Omega=  0.000000  0.000000  1.000000  0.000000  0.000000 ICntrl=     500 IOpCl=  0
         NMat0=    1 NMatS0=    1 NMatT0=    0 NMatD0=    1 NMtDS0=    0 NMtDT0=    0
         I1Cent=           4 NGrid=           0.
 Petite list used in FoFCou.
 Requested convergence on RMS density matrix=1.00D-08 within 128 cycles.
 Requested convergence on MAX density matrix=1.00D-06.
 Requested convergence on             energy=1.00D-06.
 No special actions if energy rises.
 Keep R1 ints in memory in canonical form, NReq=3134234.
 SCF Done:  E(RHF) =  -197.001944384     A.U. after   11 cycles
             Convg  =    0.5254D-08             -V/T =  2.0700
   1 Symmetry operations used in ECPInt.
 ECPInt:  NShTT=     780 NPrTT=    3579 LenC2=     766 LenP2D=    2848.
 LDataN:  DoStor=T MaxTD1= 6 Len=  172
 Calling FoFJK, ICntrl=      2127 FMM=F ISym2X=0 I1Cent= 0 IOpClX= 0 NMat=1 NMatS=1 NMatT=0.
 ***** Axes restored to original set *****
 -------------------------------------------------------------------
 Center     Atomic                   Forces (Hartrees/Bohr)
 Number     Number              X              Y              Z
 -------------------------------------------------------------------
      1        6           0.000219159   -0.000074904    0.000078081
      2        6           0.000042218   -0.000116443    0.000011131
      3        1          -0.000102337   -0.000042500   -0.000039817
      4        1          -0.000004037   -0.000067515   -0.000008793
      5        1          -0.000008467   -0.000065004   -0.000006692
      6       50          -0.000113037    0.000098226    0.000008136
      7       50           0.000026376    0.000155878    0.000039806
      8       35          -0.000201481   -0.000038337   -0.000006091
      9        9           0.000046393    0.000010039   -0.000029576
     10        1           0.000095212    0.000140559   -0.000046185
 -------------------------------------------------------------------
 Cartesian Forces:  Max     0.000219159 RMS     0.000086278

 GradGradGradGradGradGradGradGradGradGradGradGradGradGradGradGradGradGrad
 Berny optimization.
 Using GEDIIS/GDIIS optimizer.
 Internal  Forces:  Max     0.000221189 RMS     0.000099176
 Search for a local minimum.
 Step number   5 out of a maximum of   43
 All quantities printed in internal units (Hartrees-Bohrs-Radians)
 Mixed Optimization -- En-DIIS/RFO-DIIS
 Swaping is turned off.
 Update second derivatives using D2CorX and points    1    2    3    4    5
 DE= -7.77D-06 DEPred=-6.62D-06 R= 1.17D+00
 SS=  1.41D+00  RLast= 3.71D-02 DXNew= 2.5227D-01 1.1134D-01
 Trust test= 1.17D+00 RLast= 3.71D-02 DXMaxT set to 1.50D-01
     Eigenvalues ---    0.00180   0.00772   0.01703   0.01888   0.03195
     Eigenvalues ---    0.03350   0.04834   0.07312   0.10258   0.12189
     Eigenvalues ---    0.12287   0.12456   0.12530   0.13842   0.16220
     Eigenvalues ---    0.16794   0.18697   0.20582   0.23695   0.25159
     Eigenvalues ---    0.27878   0.36658   0.49732   0.622991000.00000
     Eigenvalues --- 1000.000001000.000001000.000001000.000001000.00000
     Eigenvalues --- 1000.000001000.000001000.00000
 En-DIIS/RFO-DIIS IScMMF=        0 using points:     5    4    3    2
 RFO step:  Lambda=-9.49722985D-07.
 DIIS coeffs:      1.78674     -0.42001     -0.44387      0.07714
 Iteration  1 RMS(Cart)=  0.01060356 RMS(Int)=  0.00004670
 Iteration  2 RMS(Cart)=  0.00006562 RMS(Int)=  0.00000769
 Iteration  3 RMS(Cart)=  0.00000000 RMS(Int)=  0.00000769
 Variable       Old X    -DE/DX   Delta X   Delta X   Delta X     New X
                                  (DIIS)     (GDIIS)  (Total)
    R1        2.49088  -0.00008  -0.00010  -0.00032  -0.00042   2.49046
    R2        3.63518  -0.00020  -0.00029  -0.00030  -0.00059   3.63459
    R3        2.60088  -0.00002   0.00023   0.00013   0.00036   2.60124
    R4        4.09862   0.00016   0.00091   0.00095   0.00187   4.10049
    R5        2.02991  -0.00003  -0.00013  -0.00007  -0.00019   2.02972
    R6        3.24796   0.00004  -0.00005   0.00040   0.00034   3.24830
    R7        3.26614   0.00002  -0.00022  -0.00004  -0.00026   3.26587
    R8        3.26788   0.00003  -0.00031   0.00003  -0.00028   3.26760
    R9        5.26598  -0.00003   0.00055  -0.00167  -0.00112   5.26486
    A1        2.22516   0.00005  -0.00001   0.00066   0.00064   2.22581
    A2        2.13766   0.00003   0.00026  -0.00080  -0.00054   2.13712
    A3        1.92031  -0.00008  -0.00026   0.00017  -0.00008   1.92022
    A4        2.17517   0.00001  -0.00138  -0.00097  -0.00235   2.17281
    A5        2.04548  -0.00018   0.00076  -0.00054   0.00022   2.04569
    A6        2.06161   0.00017   0.00062   0.00155   0.00217   2.06378
    A7        1.79687   0.00022   0.00025   0.00026   0.00049   1.79736
    A8        1.97532  -0.00021  -0.00188  -0.00239  -0.00428   1.97104
    A9        2.04864  -0.00009  -0.00087  -0.00221  -0.00309   2.04555
   A10        1.77974  -0.00010   0.00005  -0.00046  -0.00043   1.77931
   A11        1.91828   0.00016   0.00205   0.00183   0.00386   1.92214
   A12        1.93437   0.00014   0.00313   0.00191   0.00503   1.93939
    D1        3.10686   0.00004   0.00028   0.00170   0.00198   3.10883
    D2        0.01268   0.00002   0.00032   0.00072   0.00103   0.01372
    D3       -0.02186  -0.00002   0.00129  -0.00223  -0.00094  -0.02281
    D4       -3.11604  -0.00004   0.00133  -0.00322  -0.00189  -3.11792
    D5        0.54994   0.00006   0.01012   0.01011   0.02023   0.57017
    D6        2.77904  -0.00002   0.00803   0.00604   0.01407   2.79311
    D7       -2.63947   0.00006   0.01008   0.01105   0.02114  -2.61834
    D8       -0.41038  -0.00002   0.00799   0.00698   0.01498  -0.39540
    D9        3.00987  -0.00001   0.00079   0.00318   0.00398   3.01385
   D10        1.05593  -0.00006  -0.00208   0.00167  -0.00043   1.05549
   D11       -1.18318   0.00005  -0.00114  -0.00022  -0.00134  -1.18453
   D12       -3.13712   0.00000  -0.00402  -0.00173  -0.00576   3.14030
         Item               Value     Threshold  Converged?
 Maximum Force            0.000221     0.000450     YES
 RMS     Force            0.000099     0.000300     YES
 Maximum Displacement     0.034546     0.001800     NO 
 RMS     Displacement     0.010604     0.001200     NO 
 Predicted change in Energy=-2.363387D-06
 GradGradGradGradGradGradGradGradGradGradGradGradGradGradGradGradGradGrad

                          Input orientation:                          
 ---------------------------------------------------------------------
 Center     Atomic      Atomic             Coordinates (Angstroms)
 Number     Number       Type             X           Y           Z
 ---------------------------------------------------------------------
      1          6           0        2.292369    2.926310   -0.030031
      2          6           0        1.924501    1.662356    0.032798
      3          1           0       -1.019839    2.190708   -0.592092
      4          1           0       -2.089715   -2.181535   -0.144401
      5          1           0        0.480504   -2.729942    0.409775
      6         50           0       -0.126561    0.988941    0.252019
      7         50           0       -0.490410   -1.657900   -0.537844
      8         35           0        4.080368    3.620446   -0.173117
      9          9           0        1.386749    3.962082    0.012719
     10          1           0        2.703155    0.922747    0.014651
 ---------------------------------------------------------------------
                    Distance matrix (angstroms):
                    1          2          3          4          5
     1  C    0.000000
     2  C    1.317897   0.000000
     3  H    3.439149   3.055942   0.000000
     4  H    6.730960   5.560650   4.523446   0.000000
     5  H    5.955626   4.638915   5.240951   2.685868   0.000000
     6  Sn   3.111941   2.169885   1.718928   3.750071   3.771407
     7  Sn   5.386717   4.145061   3.885231   1.728226   1.729141
     8  Br   1.923340   2.919637   5.313361   8.469576   7.322992
     9  F    1.376517   2.361846   3.048808   7.060773   6.764771
    10  H    2.045728   1.074083   3.979516   5.712571   4.294001
                    6          7          8          9         10
     6  Sn   0.000000
     7  Sn   2.786043   0.000000
     8  Br   4.980343   6.991850   0.000000
     9  F    3.344688   5.950718   2.721549   0.000000
    10  H    2.840426   4.142928   3.034724   3.312172   0.000000
 Stoichiometry    C2H4BrFSn2
 Framework group  C1[X(C2H4BrFSn2)]
 Deg. of freedom    24
 Full point group                 C1      NOp   1
 Largest Abelian subgroup         C1      NOp   1
 Largest concise Abelian subgroup C1      NOp   1
                         Standard orientation:                         
 ---------------------------------------------------------------------
 Center     Atomic      Atomic             Coordinates (Angstroms)
 Number     Number       Type             X           Y           Z
 ---------------------------------------------------------------------
      1          6           0        2.375127    0.210274   -0.057353
      2          6           0        1.173202   -0.266584    0.197275
      3          1           0       -0.335029    2.067607   -1.073778
      4          1           0       -4.353591    0.332009    0.066587
      5          1           0       -3.103467   -1.756124    1.202711
      6         50           0       -0.649469    0.910147    0.157534
      7         50           0       -2.942331   -0.648780   -0.115528
      8         35           0        4.047992   -0.737016    0.000936
[...]
     5   1     0.01   0.23  -0.23    -0.01  -0.06   0.08     0.00   0.00   0.00
     6  50     0.00   0.00   0.00     0.00   0.01  -0.01     0.00   0.00   0.00
     7  50    -0.01   0.00   0.00     0.00   0.00   0.00     0.00   0.00   0.00
     8  35     0.00   0.00   0.00     0.00   0.00   0.00     0.00   0.00   0.00
     9   9     0.00   0.00   0.00     0.00   0.00   0.00     0.00   0.00   0.00
    10   1     0.00   0.00   0.00    -0.01   0.00   0.00    -0.08  -0.96   0.26

 -------------------
 - Thermochemistry -
 -------------------
 Temperature   298.150 Kelvin.  Pressure   1.00000 Atm.
 Atom     1 has atomic number  6 and mass  12.00000
 Atom     2 has atomic number  6 and mass  12.00000
 Atom     3 has atomic number  1 and mass   1.00783
 Atom     4 has atomic number  1 and mass   1.00783
 Atom     5 has atomic number  1 and mass   1.00783
 Atom     6 has atomic number 50 and mass 117.90180
 Atom     7 has atomic number 50 and mass 117.90180
 Atom     8 has atomic number 35 and mass  78.91834
 Atom     9 has atomic number  9 and mass  18.99840
 Atom    10 has atomic number  1 and mass   1.00783
 Molecular mass:   361.75164 amu.
 Principal axes and moments of inertia in atomic units:
                           1         2         3
     Eigenvalues --   913.905389335.10797**********
           X            1.00000   0.00030  -0.00244
           Y           -0.00039   0.99940  -0.03472
           Z            0.00243   0.03472   0.99939
 This molecule is an asymmetric top.
 Rotational symmetry number  1.
 Warning -- assumption of classical behavior for rotation
           may cause significant error
 Rotational temperatures (Kelvin)      0.09477     0.00928     0.00851
 Rotational constants (GHZ):           1.97476     0.19333     0.17738
 Zero-point vibrational energy     120235.4 (Joules/Mol)
                                   28.73694 (Kcal/Mol)
 Warning -- explicit consideration of  13 degrees of freedom as
           vibrations may cause significant error
 Vibrational temperatures:     28.22    52.26   150.19   162.60   214.30
          (Kelvin)            267.17   278.55   429.19   501.65   575.65
                              712.34   827.19   858.59   947.40  1134.73
                             1189.36  1386.86  1530.15  1945.09  2582.32
                             2740.29  2745.41  2787.36  4875.07
 
 Zero-point correction=                           0.045795 (Hartree/Particle)
 Thermal correction to Energy=                    0.055653
 Thermal correction to Enthalpy=                  0.056597
 Thermal correction to Gibbs Free Energy=         0.005095
 Sum of electronic and zero-point Energies=           -196.956153
 Sum of electronic and thermal Energies=              -196.946295
 Sum of electronic and thermal Enthalpies=            -196.945351
 Sum of electronic and thermal Free Energies=         -196.996852
 
                     E (Thermal)             CV                S
                      KCal/Mol        Cal/Mol-Kelvin    Cal/Mol-Kelvin
 Total                   34.923             30.655            108.395
 Electronic               0.000              0.000              0.000
 Translational            0.889              2.981             43.551
 Rotational               0.889              2.981             32.829
 Vibrational             33.145             24.693             32.015
 Vibration     1          0.593              1.986              6.673
 Vibration     2          0.594              1.982              5.450
 Vibration     3          0.605              1.946              3.371
 Vibration     4          0.607              1.939              3.216
 Vibration     5          0.618              1.904              2.686
 Vibration     6          0.632              1.859              2.270
 Vibration     7          0.635              1.849              2.193
 Vibration     8          0.691              1.677              1.426
 Vibration     9          0.726              1.578              1.172
 Vibration    10          0.766              1.470              0.962
 Vibration    11          0.851              1.261              0.670
 Vibration    12          0.931              1.085              0.495
 Vibration    13          0.955              1.039              0.455
                       Q            Log10(Q)             Ln(Q)
 Total Bot       0.453178D-02         -2.343731         -5.396641
 Total V=0       0.525497D+19         18.720570         43.105706
 Vib (Bot)       0.502441D-17        -17.298915        -39.832224
 Vib (Bot)    1  0.105607D+02          1.023691          2.357135
 Vib (Bot)    2  0.569834D+01          0.755749          1.740175
 Vib (Bot)    3  0.196429D+01          0.293206          0.675133
 Vib (Bot)    4  0.181107D+01          0.257935          0.593917
 Vib (Bot)    5  0.136179D+01          0.134111          0.308803
 Vib (Bot)    6  0.107947D+01          0.033212          0.076473
 Vib (Bot)    7  0.103240D+01          0.013848          0.031886
 Vib (Bot)    8  0.638137D+00         -0.195086         -0.449202
 Vib (Bot)    9  0.529622D+00         -0.276034         -0.635592
 Vib (Bot)   10  0.445448D+00         -0.351203         -0.808676
 Vib (Bot)   11  0.333400D+00         -0.477034         -1.098411
 Vib (Bot)   12  0.266394D+00         -0.574476         -1.322779
 Vib (Bot)   13  0.251055D+00         -0.600231         -1.382082
 Vib (V=0)       0.582622D+04          3.765387          8.670124
 Vib (V=0)    1  0.110725D+02          1.044245          2.404463
 Vib (V=0)    2  0.622024D+01          0.793807          1.827808
 Vib (V=0)    3  0.252693D+01          0.402593          0.927006
 Vib (V=0)    4  0.237882D+01          0.376362          0.866605
 Vib (V=0)    5  0.195068D+01          0.290187          0.668180
 Vib (V=0)    6  0.168965D+01          0.227796          0.524520
 Vib (V=0)    7  0.164711D+01          0.216721          0.499019
 Vib (V=0)    8  0.131069D+01          0.117500          0.270554
 Vib (V=0)    9  0.122835D+01          0.089323          0.205675
 Vib (V=0)   10  0.116964D+01          0.068054          0.156700
 Vib (V=0)   11  0.110096D+01          0.041772          0.096185
 Vib (V=0)   12  0.106654D+01          0.027976          0.064418
 Vib (V=0)   13  0.105949D+01          0.025097          0.057787
 Electronic      0.100000D+01          0.000000          0.000000
 Translational   0.270440D+09          8.432071         19.415561
 Rotational      0.333513D+07          6.523113         15.020022
 ***** Axes restored to original set *****
 -------------------------------------------------------------------
 Center     Atomic                   Forces (Hartrees/Bohr)
 Number     Number              X              Y              Z
 -------------------------------------------------------------------
      1        6           0.000183523    0.000003059    0.000061568
      2        6          -0.000149976   -0.000050704    0.000026118
      3        1          -0.000020866   -0.000014648   -0.000000977
      4        1           0.000002223   -0.000012510   -0.000014817
      5        1           0.000015440    0.000011762    0.000014190
      6       50           0.000083997    0.000011424   -0.000002165
      7       50          -0.000050448    0.000008470   -0.000005190
      8       35          -0.000040384   -0.000002420   -0.000006313
      9        9          -0.000060823    0.000041640   -0.000038923
     10        1           0.000037313    0.000003927   -0.000033491
 -------------------------------------------------------------------
 Cartesian Forces:  Max     0.000183523 RMS     0.000053487

 GradGradGradGradGradGradGradGradGradGradGradGradGradGradGradGradGradGrad
 Berny optimization.
 Internal  Forces:  Max     0.000069892 RMS     0.000033385
 Search for a local minimum.
 Step number   1 out of a maximum of    2
 All quantities printed in internal units (Hartrees-Bohrs-Radians)
 Second derivative matrix not updated -- analytic derivatives used.
     Eigenvalues ---    0.00088   0.00599   0.01191   0.01803   0.02669
     Eigenvalues ---    0.03123   0.04339   0.06371   0.06783   0.07066
     Eigenvalues ---    0.08007   0.09585   0.11827   0.12580   0.13746
     Eigenvalues ---    0.13941   0.14207   0.15206   0.16858   0.19800
     Eigenvalues ---    0.28336   0.40466   0.41504   0.728751000.00000
     Eigenvalues --- 1000.000001000.000001000.000001000.000001000.00000
     Eigenvalues --- 1000.000001000.000001000.00000
 Angle between quadratic step and forces=  38.51 degrees.
 Linear search not attempted -- first point.
 Iteration  1 RMS(Cart)=  0.00077950 RMS(Int)=  0.00000033
 Iteration  2 RMS(Cart)=  0.00000031 RMS(Int)=  0.00000008
 Variable       Old X    -DE/DX   Delta X   Delta X   Delta X     New X
                                 (Linear)    (Quad)   (Total)
    R1        2.49044   0.00006   0.00000   0.00012   0.00012   2.49056
    R2        3.63428  -0.00004   0.00000  -0.00033  -0.00033   3.63395
    R3        2.60151   0.00007   0.00000   0.00024   0.00024   2.60175
    R4        4.10081  -0.00003   0.00000  -0.00045  -0.00045   4.10035
    R5        2.02975   0.00003   0.00000   0.00009   0.00009   2.02984
    R6        3.24846   0.00000   0.00000   0.00000   0.00000   3.24845
    R7        3.26580   0.00000   0.00000  -0.00008  -0.00008   3.26572
    R8        3.26757   0.00001   0.00000   0.00007   0.00007   3.26764
    R9        5.26421   0.00000   0.00000  -0.00030  -0.00030   5.26390
    A1        2.22624   0.00004   0.00000   0.00028   0.00028   2.22652
    A2        2.13665  -0.00004   0.00000  -0.00026  -0.00026   2.13639
    A3        1.92024   0.00000   0.00000  -0.00001  -0.00001   1.92022
    A4        2.17203   0.00003   0.00000   0.00030   0.00030   2.17234
    A5        2.04545  -0.00005   0.00000  -0.00038  -0.00038   2.04507
    A6        2.06474   0.00002   0.00000   0.00008   0.00008   2.06482
    A7        1.79773   0.00002   0.00000   0.00052   0.00052   1.79825
    A8        1.96943   0.00003   0.00000   0.00048   0.00048   1.96991
    A9        2.04401  -0.00004   0.00000  -0.00051  -0.00051   2.04351
   A10        1.77926   0.00001   0.00000   0.00021   0.00021   1.77947
   A11        1.92394   0.00006   0.00000   0.00091   0.00091   1.92485
   A12        1.94100  -0.00007   0.00000  -0.00086  -0.00086   1.94014
    D1        3.10703   0.00002   0.00000  -0.00002  -0.00002   3.10702
    D2        0.01334   0.00001   0.00000  -0.00009  -0.00009   0.01325
    D3       -0.02174  -0.00004   0.00000  -0.00086  -0.00086  -0.02260
    D4       -3.11543  -0.00005   0.00000  -0.00094  -0.00094  -3.11637
    D5        0.57906   0.00000   0.00000  -0.00051  -0.00051   0.57856
    D6        2.79937  -0.00001   0.00000  -0.00048  -0.00048   2.79889
    D7       -2.61091   0.00001   0.00000  -0.00044  -0.00044  -2.61136
    D8       -0.39061   0.00000   0.00000  -0.00042  -0.00042  -0.39102
    D9        3.01593  -0.00001   0.00000  -0.00005  -0.00005   3.01588
   D10        1.05572  -0.00001   0.00000  -0.00035  -0.00035   1.05537
   D11       -1.18444   0.00002   0.00000   0.00066   0.00066  -1.18379
   D12        3.13853   0.00001   0.00000   0.00036   0.00036   3.13889
         Item               Value     Threshold  Converged?
 Maximum Force            0.000070     0.000450     YES
 RMS     Force            0.000033     0.000300     YES
 Maximum Displacement     0.002257     0.001800     NO 
 RMS     Displacement     0.000780     0.001200     YES
 Predicted change in Energy=-1.902685D-07
 GradGradGradGradGradGradGradGradGradGradGradGradGradGradGradGradGradGrad

 1\1\GINC-MALLOS72\Freq\RHF\SDD\C2H4Br1F1Sn2\MARLIN\24-Oct-2024\0\\#N G
 eom=AllCheck Guess=TCheck SCRF=Check GenChk RHF/SDD Freq\\Title Card R
 equired\\0,1\C,2.2928194005,2.9260694036,-0.0292835556\C,1.9241529758,
 1.6621545728,0.0292243335\H,-1.0205384797,2.1893861464,-0.5981219964\H
 ,-2.0892432536,-2.1827081424,-0.1442898798\H,0.4805721166,-2.729205226
 6,0.4131656224\Sn,-0.1275181541,0.990937302,0.2511310785\Sn,-0.4899136
 474,-1.6569612817,-0.534628022\Br,4.0807015484,3.6202400931,-0.1714755
 239\F,1.3876311222,3.9620429607,0.0215135886\H,2.7024566113,0.92225690
 19,0.0072415745\\Version=EM64L-G09RevA.01\State=1-A\HF=-197.0019479\RM
 SD=7.916e-09\RMSF=5.349e-05\ZeroPoint=0.0457952\Thermal=0.0556531\Dipo
 le=-0.0895317,-0.8493802,0.0101557\DipoleDeriv=1.4800494,0.1565555,-0.
 0342719,0.5115348,1.8112099,0.1017936,-0.1447623,-0.1172155,0.0675286,
 -1.0049747,-0.7933858,-0.0604578,-0.5875346,-0.9870046,0.0583664,0.245
 9058,0.5399034,-0.2063994,-0.3355503,-0.0787297,-0.0275177,0.1199533,-
 0.2768797,0.1315429,-0.0242708,0.4871406,-0.0339847,-0.4577485,-0.2301
 547,-0.0377751,-0.1539518,-0.2356021,0.0991132,0.1779426,0.4150601,-0.
 0306243,-0.2632297,0.0440828,-0.0306528,0.0922883,-0.3377522,0.164292,
 -0.0211934,0.5429341,-0.0774271,1.2950021,0.789343,0.1159003,0.1782557
 ,0.8487356,-0.1849666,-0.1966882,-0.9475894,0.2183601,0.6484198,0.1478
 203,0.0632337,0.0363775,0.5042447,-0.2781754,-0.156723,-0.9494906,0.07
 67013,-0.5934281,-0.408215,-0.0101792,-0.2719579,-0.3053824,-0.0091587
 ,0.0173697,-0.0161768,0.0093825,-0.6989347,0.3992311,0.0506176,0.01414
 82,-1.0757674,-0.053363,0.0676267,0.0312982,-0.1754062,-0.0696052,-0.0
 265474,-0.028897,0.0608865,0.0541983,-0.0294445,0.0347929,0.0141358,0.
 1518692\Polar=124.8464054,49.0840888,201.4871852,10.2983717,42.7215978
 ,67.2867958\HyperPolar=-77.3378363,-43.33968,-71.1392233,-90.0959894,-
 21.6657267,-45.5150475,4.4775311,-20.0292857,38.1963309,2.6244339\PG=C
 01 [X(C2H4Br1F1Sn2)]\NImag=0\\0.42638939,0.07340220,0.88253902,-0.0258
 8296,-0.02259355,0.11795993,-0.13399722,-0.13202577,0.00759342,0.49085
 770,-0.14541678,-0.59470030,0.02348904,-0.00954450,0.89570644,0.009710
 50,0.02198931,-0.05655912,-0.02480176,-0.02855126,0.10280617,0.0014712
 2,0.00289674,0.00048200,-0.00683109,0.00869350,-0.00626749,0.04948629,
 0.00315932,-0.00263829,-0.00005305,-0.00186820,0.00506059,-0.00176940,
 -0.04548725,0.07641172,-0.00070987,-0.00140996,-0.00025715,0.00260815,
 0.00080548,0.00078376,0.03348263,-0.04652718,0.03735604,0.00033322,0.0
 0082733,-0.00010665,-0.00014172,-0.00021786,-0.00022087,0.00011089,-0.
 00022951,0.00029857,0.12096078,-0.00047850,0.00042216,0.00016108,0.000
 46181,-0.00263232,-0.00209905,0.00035775,-0.00084811,-0.00139332,0.034
 88083,0.02356560,-0.00106785,-0.00100101,0.00025591,0.00056463,-0.0014
 9475,0.00082841,0.00017353,-0.00114654,-0.00150295,-0.02378488,-0.0111
 3178,0.01318037,0.00011836,-0.00005764,0.00002816,0.00018152,0.0005246
 8,-0.00007732,0.00019023,-0.00021467,-0.00079985,-0.00695174,0.0070168
 6,-0.00673621,0.05419282,0.00032975,0.00007523,0.00011871,-0.00014068,
 -0.00065753,-0.00149627,-0.00023762,-0.00191753,-0.00209976,-0.0018258
 5,0.00312497,-0.00111824,-0.04330853,0.05955140,-0.00051579,-0.0015718
 3,0.00033163,0.00096404,0.00001976,-0.00192319,-0.00062554,-0.00209792
 ,0.00033461,0.00254373,-0.00112034,0.00055372,0.03875041,-0.04438478,0
 .04335487,-0.01153263,-0.01295098,0.00202490,-0.10188998,-0.02866325,0
 .01484809,-0.04199554,0.04662113,-0.03603032,-0.00024299,-0.00490907,-
 0.00276476,0.00012982,0.00292944,-0.00054129,0.16966981,-0.02589094,-0
 .00060978,0.00169388,-0.02469505,-0.04378796,0.01367939,0.03781158,-0.
 08029346,0.05394266,0.00259662,0.00398815,-0.00340878,0.00015917,0.002
 34706,-0.00492564,0.00258034,0.17635538,0.00353661,0.00389528,0.006042
 92,0.00364777,0.00229555,-0.02166431,-0.02795854,0.04268020,-0.0396546
 6,0.00147131,0.00679822,0.00060297,0.00135513,0.00883760,0.00172560,0.
 02290392,-0.05080325,0.06367068,-0.00192933,0.00056745,0.00012232,0.00
 007922,-0.00590834,-0.00220043,0.00058631,0.00246089,0.00007711,-0.114
 01784,-0.03731728,0.03340833,-0.04805675,0.04269265,-0.04134776,-0.009
 10969,-0.00712687,-0.00165572,0.17215333,0.00112266,-0.00024656,-0.000
 27135,0.00103882,0.00448627,-0.00202442,0.00021135,0.00395927,-0.00341
 617,-0.03559525,-0.02733195,0.01875198,0.03576815,-0.06234636,0.052998
 70,-0.00835299,-0.06068040,-0.01074612,0.00510638,0.14137859,0.0020323
 0,0.00286529,-0.00079345,-0.00090393,0.00460796,0.00225116,0.00060335,
 0.00853187,0.00246313,0.01967241,0.00861127,-0.01357365,-0.03244682,0.
 04006051,-0.04423166,0.00030147,-0.00754992,-0.01234844,0.01134941,-0.
 05561029,0.06555644,-0.12071659,-0.05321063,0.00868438,-0.02387471,-0.
 00666149,0.00311399,-0.00065855,0.00000152,0.00037593,-0.00023385,-0.0
 0023915,0.00023287,0.00007540,-0.00017292,0.00057167,0.00495034,0.0005
 7557,-0.00146250,-0.00022549,0.00066457,-0.00059599,0.18297602,-0.0453
 7835,-0.04864812,0.00430281,-0.03034249,-0.00821919,0.00292203,-0.0005
 3513,0.00018658,0.00017366,-0.00012785,-0.00024543,-0.00001168,0.00006
 089,-0.00011508,0.00029230,0.00240425,-0.00100697,-0.00095600,-0.00032
 139,0.00074827,0.00000350,0.05870362,0.05386625,0.00792521,0.00437067,
 -0.02518940,0.00333345,0.00185000,0.01213742,0.00059657,0.00018157,-0.
 00012877,0.00004221,0.00023620,-0.00009884,0.00001272,0.00015393,0.000
 12843,-0.00093637,-0.00092726,0.00305292,0.00021473,0.00011796,-0.0001
 7085,-0.01410962,-0.00534988,0.01030414,-0.16341063,0.13869351,0.00704
 305,0.00638335,-0.00088868,-0.00127369,0.00022692,-0.00347991,0.000014
 08,0.00010304,0.00002385,-0.00007094,0.00001761,-0.00030748,-0.0002356
 2,-0.00443080,0.00465162,-0.00063095,0.00052534,0.00024615,0.00072974,
 -0.04270096,0.01739967,0.00320275,0.20096436,0.10848120,-0.21437464,-0
 .00541341,0.04392587,-0.04869053,-0.00030193,-0.00173212,0.00055808,-0
 .00023556,-0.00040473,-0.00034168,0.00032906,-0.00005220,-0.00013748,0
 .00049359,0.00769945,-0.00086787,-0.00194209,-0.00014991,0.00057698,-0
 .00062349,0.00062437,0.00255505,-0.00036616,-0.15499665,0.26551643,0.0
 0629929,-0.00684885,-0.04131259,-0.00045791,0.00044780,0.00317672,-0.0
 0065289,-0.00023612,0.00037960,-0.00000789,-0.00019766,-0.00003532,-0.
 00002457,-0.00015904,-0.00022240,0.00005602,0.00005052,-0.00392120,-0.
 00008597,0.00003758,0.00052871,0.00339466,-0.00139334,0.00454927,-0.00
 934679,0.00753748,0.02272641,0.00327421,-0.01814222,0.00001138,-0.2307
 6706,0.18808271,0.00716898,-0.00258668,-0.00096332,0.00068356,0.000080
 20,0.00020290,0.00004527,0.00010273,0.00004124,0.00043614,-0.00554834,
 0.00933795,-0.00120703,-0.00000509,-0.00020984,-0.00074194,0.00040840,
 -0.00186322,-0.00028164,0.00232178,-0.00339529,0.00082606,0.23271984,0
 .03066945,-0.02181871,-0.00143416,0.15319018,-0.20656547,-0.00234840,-
 0.00197881,-0.00047885,0.00016015,0.00009626,0.00029861,0.00023174,0.0
 0010328,0.00007530,0.00029617,-0.00735832,0.00455585,-0.00005940,-0.00
 000359,-0.00054411,-0.00089670,-0.00028547,0.00087864,-0.00026703,-0.0
 0134208,-0.00479435,0.00076163,-0.17309091,0.22839308,-0.00132744,0.00
 030465,-0.00047869,0.00745213,-0.00346958,-0.04183702,0.00016638,0.000
 43658,0.00022638,0.00009206,0.00013537,-0.00021061,-0.00006165,0.00008
 733,-0.00005162,0.00013834,-0.00175159,0.00249352,0.00011797,0.0001621
 4,0.00031861,-0.00020540,0.00001659,-0.00458432,0.00056837,0.00052251,
 0.01413079,-0.00694078,0.00355600,0.02999296\\-0.00018352,-0.00000306,
 -0.00006157,0.00014998,0.00005070,-0.00002612,0.00002087,0.00001465,0.
 00000098,-0.00000222,0.00001251,0.00001482,-0.00001544,-0.00001176,-0.
 00001419,-0.00008400,-0.00001142,0.00000217,0.00005045,-0.00000847,0.0
 0000519,0.00004038,0.00000242,0.00000631,0.00006082,-0.00004164,0.0000
 3892,-0.00003731,-0.00000393,0.00003349\\\@


 MATERIAL COPIED FROM ONE SCHOLARLY BOOK WITHOUT CREDIT COMPRISES PLAGIARISM.
 MATERIAL COPIED FROM TWO SCHOLARLY BOOKS COMPRISES AN ESSAY.
 MATERIAL COPIED FROM THREE SCHOLARLY BOOKS COMPRISES A DISSERTATION.
 MATERIAL COPIED FROM FOUR SCHOLARLY BOOKS COMPRISES A FIFTH SCHOLARLY BOOK.

                               -- C&EN, 25 FEB 1980
 Job cpu time:  0 days  0 hours  0 minutes 51.5 seconds.
 File lengths (MBytes):  RWF=     10 Int=      0 D2E=      0 Chk=      2 Scr=      1
 Normal termination of Gaussian 09 at Thu Oct 24 10:29:21 2024.
