 Entering Gaussian System, Link 0=g09
 Initial command:
 /u/local/G09/g09/l1.exe /tmp1/marlin/22844.mallos00.local/Gau-15606.inp -scrdir=/tmp1/marlin/22844.mallos00.local/
 Entering Link 1 = /u/local/G09/g09/l1.exe PID=     15608.
  
 Copyright (c) 1988,1990,1992,1993,1995,1998,2003,2009, Gaussian, Inc.
                  All Rights Reserved.
  
 This is part of the Gaussian(R) 09 program.  It is based on
 the Gaussian(R) 03 system (copyright 2003, Gaussian, Inc.),
 the Gaussian(R) 98 system (copyright 1998, Gaussian, Inc.),
 the Gaussian(R) 94 system (copyright 1995, Gaussian, Inc.),
 the Gaussian 92(TM) system (copyright 1992, Gaussian, Inc.),
 the Gaussian 90(TM) system (copyright 1990, Gaussian, Inc.),
 the Gaussian 88(TM) system (copyright 1988, Gaussian, Inc.),
 the Gaussian 86(TM) system (copyright 1986, Carnegie Mellon
 University), and the Gaussian 82(TM) system (copyright 1983,
 Carnegie Mellon University). Gaussian is a federally registered
 trademark of Gaussian, Inc.
  
 This software contains proprietary and confidential information,
 including trade secrets, belonging to Gaussian, Inc.
  
 This software is provided under written license and may be
 used, copied, transmitted, or stored only in accord with that
 written license.
  
 The following legend is applicable only to US Government
 contracts under FAR:
  
                    RESTRICTED RIGHTS LEGEND
  
 Use, reproduction and disclosure by the US Government is
 subject to restrictions as set forth in subparagraphs (a)
 and (c) of the Commercial Computer Software - Restricted
 Rights clause in FAR 52.227-19.
  
 Gaussian, Inc.
 340 Quinnipiac St., Bldg. 40, Wallingford CT 06492
  
  
 ---------------------------------------------------------------
 Warning -- This program may not be used in any manner that
 competes with the business of Gaussian, Inc. or will provide
 assistance to any competitor of Gaussian, Inc.  The licensee
 of this program is prohibited from giving any competitor of
 Gaussian, Inc. access to this program.  By using this program,
 the user acknowledges that Gaussian, Inc. is engaged in the
 business of creating and licensing software in the field of
 computational chemistry and represents and warrants to the
 licensee that it is not a competitor of Gaussian, Inc. and that
 it will not use this program in any manner prohibited above.
 ---------------------------------------------------------------
  

 Cite this work as:
 Gaussian 09, Revision A.01,
 M. J. Frisch, G. W. Trucks, H. B. Schlegel, G. E. Scuseria, 
 M. A. Robb, J. R. Cheeseman, G. Scalmani, V. Barone, B. Mennucci, 
 G. A. Petersson, H. Nakatsuji, M. Caricato, X. Li, H. P. Hratchian, 
 A. F. Izmaylov, J. Bloino, G. Zheng, J. L. Sonnenberg, M. Hada, 
 M. Ehara, K. Toyota, R. Fukuda, J. Hasegawa, M. Ishida, T. Nakajima, 
 Y. Honda, O. Kitao, H. Nakai, T. Vreven, J. A. Montgomery, Jr., 
 J. E. Peralta, F. Ogliaro, M. Bearpark, J. J. Heyd, E. Brothers, 
 K. N. Kudin, V. N. Staroverov, R. Kobayashi, J. Normand, 
 K. Raghavachari, A. Rendell, J. C. Burant, S. S. Iyengar, J. Tomasi, 
 M. Cossi, N. Rega, J. M. Millam, M. Klene, J. E. Knox, J. B. Cross, 
 V. Bakken, C. Adamo, J. Jaramillo, R. Gomperts, R. E. Stratmann, 
 O. Yazyev, A. J. Austin, R. Cammi, C. Pomelli, J. W. Ochterski, 
 R. L. Martin, K. Morokuma, V. G. Zakrzewski, G. A. Voth, 
 P. Salvador, J. J. Dannenberg, S. Dapprich, A. D. Daniels, 
 O. Farkas, J. B. Foresman, J. V. Ortiz, J. Cioslowski, 
 and D. J. Fox, Gaussian, Inc., Wallingford CT, 2009.
 
 ******************************************
 Gaussian 09:  EM64L-G09RevA.01  8-May-2009
                25-Oct-2024 
 ******************************************
 %mem=206GB
 %nproc=20
 Will use up to   20 processors via shared memory.
 %chk=4-sddmp2.chk
 ----------------------------------------
 # opt freq=noraman mp2/sdd geom=allcheck
 ----------------------------------------
 1/18=20,19=15,29=7,38=1/1,3;
 2/9=110,12=2,40=1/2;
 3/5=17,6=7,11=9,14=-4,16=1,25=1,30=1,71=1/1,2,3;
 4//1;
 5/5=2,38=5/2;
 8/6=4,10=1/1;
 9/15=2,16=-3/6;
 10/5=1/2;
 6/7=2,8=2,9=2,10=2/1;
 7/12=2/1,2,3,16;
 1/18=20,19=15/3(2);
 2/9=110/2;
 99//99;
 2/9=110/2;
 3/5=17,6=7,11=9,14=-2,16=1,25=1,30=1,71=1/1,2,3;
 4/5=5,16=3/1;
 5/5=2,38=5/2;
 8/6=4,10=1/1;
 9/15=2,16=-3/6;
 10/5=1/2;
 7/12=2/1,2,3,16;
 1/18=20,19=15/3(-8);
 2/9=110/2;
 6/7=2,8=2,9=2,10=2/1;
 99//99;
 -------------------
 Title Card Required
 -------------------
 Redundant internal coordinates taken from checkpoint file:
 4-sddmp2.chk
 Charge =  0 Multiplicity = 1
 C,0,2.2928194005,2.9260694036,-0.0292835556
 C,0,1.9241529758,1.6621545728,0.0292243335
 H,0,-1.0205384797,2.1893861464,-0.5981219964
 H,0,-2.0892432536,-2.1827081424,-0.1442898798
 H,0,0.4805721166,-2.7292052266,0.4131656224
 Sn,0,-0.1275181541,0.990937302,0.2511310785
 Sn,0,-0.4899136474,-1.6569612817,-0.534628022
 Br,0,4.0807015484,3.6202400931,-0.1714755239
 F,0,1.3876311222,3.9620429607,0.0215135886
 H,0,2.7024566113,0.9222569019,0.0072415745
 Recover connectivity data from disk.

 GradGradGradGradGradGradGradGradGradGradGradGradGradGradGradGradGradGrad
 Berny optimization.
 Initialization pass.
                           ----------------------------
                           !    Initial Parameters    !
                           ! (Angstroms and Degrees)  !
 --------------------------                            --------------------------
 ! Name  Definition              Value          Derivative Info.                !
 --------------------------------------------------------------------------------
 ! R1    R(1,2)                  1.3179         estimate D2E/DX2                !
 ! R2    R(1,8)                  1.9232         estimate D2E/DX2                !
 ! R3    R(1,9)                  1.3767         estimate D2E/DX2                !
 ! R4    R(2,6)                  2.1701         estimate D2E/DX2                !
 ! R5    R(2,10)                 1.0741         estimate D2E/DX2                !
 ! R6    R(3,6)                  1.719          estimate D2E/DX2                !
 ! R7    R(4,7)                  1.7282         estimate D2E/DX2                !
 ! R8    R(5,7)                  1.7291         estimate D2E/DX2                !
 ! R9    R(6,7)                  2.7857         estimate D2E/DX2                !
 ! A1    A(2,1,8)              127.5542         estimate D2E/DX2                !
 ! A2    A(2,1,9)              122.421          estimate D2E/DX2                !
 ! A3    A(8,1,9)              110.0215         estimate D2E/DX2                !
 ! A4    A(1,2,6)              124.4483         estimate D2E/DX2                !
 ! A5    A(1,2,10)             117.1958         estimate D2E/DX2                !
 ! A6    A(6,2,10)             118.3011         estimate D2E/DX2                !
 ! A7    A(2,6,3)              103.0026         estimate D2E/DX2                !
 ! A8    A(2,6,7)              112.84           estimate D2E/DX2                !
 ! A9    A(3,6,7)              117.1134         estimate D2E/DX2                !
 ! A10   A(4,7,5)              101.9441         estimate D2E/DX2                !
 ! A11   A(4,7,6)              110.2338         estimate D2E/DX2                !
 ! A12   A(5,7,6)              111.2112         estimate D2E/DX2                !
 ! D1    D(8,1,2,6)            178.0199         estimate D2E/DX2                !
 ! D2    D(8,1,2,10)             0.7643         estimate D2E/DX2                !
 ! D3    D(9,1,2,6)             -1.2455         estimate D2E/DX2                !
 ! D4    D(9,1,2,10)          -178.5012         estimate D2E/DX2                !
 ! D5    D(1,2,6,3)             33.178          estimate D2E/DX2                !
 ! D6    D(1,2,6,7)            160.3923         estimate D2E/DX2                !
 ! D7    D(10,2,6,3)          -149.5944         estimate D2E/DX2                !
 ! D8    D(10,2,6,7)           -22.38           estimate D2E/DX2                !
 ! D9    D(2,6,7,4)            172.8002         estimate D2E/DX2                !
 ! D10   D(2,6,7,5)             60.4882         estimate D2E/DX2                !
 ! D11   D(3,6,7,4)            -67.8636         estimate D2E/DX2                !
 ! D12   D(3,6,7,5)            179.8244         estimate D2E/DX2                !
 --------------------------------------------------------------------------------
 Trust Radius=3.00D-01 FncErr=1.00D-07 GrdErr=1.00D-07
 Number of steps in this run=  43 maximum allowed number of steps= 100.
 GradGradGradGradGradGradGradGradGradGradGradGradGradGradGradGradGradGrad

                          Input orientation:                          
 ---------------------------------------------------------------------
 Center     Atomic      Atomic             Coordinates (Angstroms)
 Number     Number       Type             X           Y           Z
 ---------------------------------------------------------------------
      1          6           0        2.292819    2.926069   -0.029284
      2          6           0        1.924153    1.662155    0.029224
      3          1           0       -1.020538    2.189386   -0.598122
      4          1           0       -2.089243   -2.182708   -0.144290
      5          1           0        0.480572   -2.729205    0.413166
      6         50           0       -0.127518    0.990937    0.251131
      7         50           0       -0.489914   -1.656961   -0.534628
      8         35           0        4.080702    3.620240   -0.171476
      9          9           0        1.387631    3.962043    0.021514
     10          1           0        2.702457    0.922257    0.007242
 ---------------------------------------------------------------------
                    Distance matrix (angstroms):
                    1          2          3          4          5
     1  C    0.000000
     2  C    1.317884   0.000000
     3  H    3.441601   3.056590   0.000000
     4  H    6.731665   5.560614   4.523638   0.000000
     5  H    5.955009   4.638467   5.241047   2.685771   0.000000
     6  Sn   3.111495   2.170053   1.719010   3.751899   3.772995
     7  Sn   5.385457   4.142726   3.883295   1.728187   1.729122
     8  Br   1.923178   2.919774   5.315263   8.470134   7.322444
     9  F    1.376658   2.361652   3.053775   7.062161   6.763797
    10  H    2.045581   1.074099   3.979042   5.711756   4.293567
                    6          7          8          9         10
     6  Sn   0.000000
     7  Sn   2.785698   0.000000
     8  Br   4.980054   6.990798   0.000000
     9  F    3.343033   5.950435   2.721526   0.000000
    10  H    2.841295   4.139712   3.034899   3.311989   0.000000
 Stoichiometry    C2H4BrFSn2
 Framework group  C1[X(C2H4BrFSn2)]
 Deg. of freedom    24
 Full point group                 C1      NOp   1
 Largest Abelian subgroup         C1      NOp   1
 Largest concise Abelian subgroup C1      NOp   1
                         Standard orientation:                         
 ---------------------------------------------------------------------
 Center     Atomic      Atomic             Coordinates (Angstroms)
 Number     Number       Type             X           Y           Z
 ---------------------------------------------------------------------
      1          6           0        2.374542    0.209501   -0.057538
      2          6           0        1.172042   -0.268345    0.192412
      3          1           0       -0.337755    2.065543   -1.078895
      4          1           0       -4.354919    0.329313    0.066185
      5          1           0       -3.103115   -1.757176    1.203250
      6         50           0       -0.649414    0.910670    0.155663
      7         50           0       -2.941750   -0.648970   -0.114212
      8         35           0        4.047545   -0.737216    0.000781
      9          9           0        2.589650    1.526185   -0.397036
     10          1           0        1.103528   -1.302708    0.473640
 ---------------------------------------------------------------------
 Rotational constants (GHZ):      1.9747572      0.1933284      0.1773794
 Standard basis: SDD (6D, 10F)
 There are    65 symmetry adapted basis functions of A   symmetry.
 Integral buffers will be    131072 words long.
 Raffenetti 1 integral format.
 Two-electron integral symmetry is turned on.
    65 basis functions,   139 primitive gaussians,    65 cartesian basis functions
    20 alpha electrons       20 beta electrons
       nuclear repulsion energy       134.4604304045 Hartrees.
 NAtoms=   10 NActive=   10 NUniq=   10 SFac= 7.50D-01 NAtFMM=   80 NAOKFM=F Big=F
 One-electron integrals computed using PRISM.
   1 Symmetry operations used in ECPInt.
 ECPInt:  NShTT=     780 NPrTT=    3579 LenC2=     766 LenP2D=    2848.
 LDataN:  DoStor=T MaxTD1= 5 Len=  102
 NBasis=    65 RedAO= T  NBF=    65
 NBsUse=    65 1.00D-06 NBFU=    65
 Harris functional with IExCor=  205 diagonalized for initial guess.
 ExpMin= 3.61D-02 ExpMax= 9.99D+03 ExpMxC= 1.51D+03 IAcc=3 IRadAn=         0 AccDes= 0.00D+00
 HarFok:  IExCor=  205 AccDes= 0.00D+00 IRadAn=         0 IDoV= 1
 ScaDFX=  1.000000  1.000000  1.000000  1.000000
 Defaulting to unpruned grid for atomic number  50.
 Defaulting to unpruned grid for atomic number  50.
 Defaulting to unpruned grid for atomic number  50.
 Defaulting to unpruned grid for atomic number  50.
 Defaulting to unpruned grid for atomic number  50.
 Defaulting to unpruned grid for atomic number  50.
 Defaulting to unpruned grid for atomic number  50.
 Defaulting to unpruned grid for atomic number  50.
 Defaulting to unpruned grid for atomic number  50.
 Defaulting to unpruned grid for atomic number  50.
 Defaulting to unpruned grid for atomic number  50.
 Defaulting to unpruned grid for atomic number  50.
 Defaulting to unpruned grid for atomic number  50.
 Defaulting to unpruned grid for atomic number  50.
 Defaulting to unpruned grid for atomic number  50.
 Defaulting to unpruned grid for atomic number  50.
 Defaulting to unpruned grid for atomic number  50.
 Defaulting to unpruned grid for atomic number  50.
 Defaulting to unpruned grid for atomic number  50.
 Defaulting to unpruned grid for atomic number  50.
 FoFCou: FMM=F IPFlag=           0 FMFlag=      100000 FMFlg1=           0
         NFxFlg=           0 DoJE=T BraDBF=F KetDBF=T FulRan=T
         Omega=  0.000000  0.000000  1.000000  0.000000  0.000000 ICntrl=     500 IOpCl=  0
         NMat0=    1 NMatS0=    1 NMatT0=    0 NMatD0=    1 NMtDS0=    0 NMtDT0=    0
         I1Cent=           4 NGrid=           0.
 Petite list used in FoFCou.
 Initial guess orbital symmetries:
       Occupied  (A) (A) (A) (A) (A) (A) (A) (A) (A) (A) (A) (A)
                 (A) (A) (A) (A) (A) (A) (A) (A)
       Virtual   (A) (A) (A) (A) (A) (A) (A) (A) (A) (A) (A) (A)
                 (A) (A) (A) (A) (A) (A) (A) (A) (A) (A) (A) (A)
                 (A) (A) (A) (A) (A) (A) (A) (A) (A) (A) (A) (A)
                 (A) (A) (A) (A) (A) (A) (A) (A) (A)
 The electronic state of the initial guess is 1-A.
 Requested convergence on RMS density matrix=1.00D-08 within 128 cycles.
 Requested convergence on MAX density matrix=1.00D-06.
 Requested convergence on             energy=1.00D-06.
 No special actions if energy rises.
 Keep R1 ints in memory in canonical form, NReq=3134234.
 SCF Done:  E(RHF) =  -197.001947933     A.U. after   15 cycles
             Convg  =    0.6020D-08             -V/T =  2.0700
 ExpMin= 3.61D-02 ExpMax= 9.99D+03 ExpMxC= 1.51D+03 IAcc=3 IRadAn=         5 AccDes= 0.00D+00
 HarFok:  IExCor=  205 AccDes= 0.00D+00 IRadAn=         5 IDoV=-2
 ScaDFX=  1.000000  1.000000  1.000000  1.000000
 Defaulting to unpruned grid for atomic number  50.
 Defaulting to unpruned grid for atomic number  50.
 Defaulting to unpruned grid for atomic number  50.
 Defaulting to unpruned grid for atomic number  50.
 Defaulting to unpruned grid for atomic number  50.
 Defaulting to unpruned grid for atomic number  50.
 Defaulting to unpruned grid for atomic number  50.
 Defaulting to unpruned grid for atomic number  50.
 Defaulting to unpruned grid for atomic number  50.
 Defaulting to unpruned grid for atomic number  50.
 Defaulting to unpruned grid for atomic number  50.
 Defaulting to unpruned grid for atomic number  50.
 Defaulting to unpruned grid for atomic number  50.
 Defaulting to unpruned grid for atomic number  50.
 Defaulting to unpruned grid for atomic number  50.
 Defaulting to unpruned grid for atomic number  50.
 Defaulting to unpruned grid for atomic number  50.
 Defaulting to unpruned grid for atomic number  50.
 Defaulting to unpruned grid for atomic number  50.
 Defaulting to unpruned grid for atomic number  50.
 Range of M.O.s used for correlation:     4    65
 NBasis=    65 NAE=    20 NBE=    20 NFC=     3 NFV=     0
 NROrb=     62 NOA=    17 NOB=    17 NVA=    45 NVB=    45
 Fully direct method using O(ONN) memory.
 JobTyp=1 Pass  1:  I=   4 to  20 NPSUse= 20 ParTrn=T ParDer=T DoDerP=T.
 Spin components of T(2) and E(2):
     alpha-alpha T2 =       0.2086158384D-01 E2=     -0.4605039427D-01
     alpha-beta  T2 =       0.1583892549D+00 E2=     -0.3130028602D+00
     beta-beta   T2 =       0.2086158384D-01 E2=     -0.4605039427D-01
 ANorm=    0.1095496427D+01
 E2 =    -0.4051036488D+00 EUMP2 =    -0.19740705158141D+03
          IDoAtm=1111111111
          Differentiating once with respect to electric field.
                with respect to dipole field.
          Differentiating once with respect to nuclear coordinates.
          Keep R1 ints in memory in canonical form, NReq=3102463.
          There are     1 degrees of freedom in the 1st order CPHF.  IDoFFX=0.
 LinEq1:  Iter=  0 NonCon=     1 RMS=8.75D-03 Max=8.12D-02
 AX will form     1 AO Fock derivatives at one time.
 LinEq1:  Iter=  1 NonCon=     1 RMS=3.27D-03 Max=2.84D-02
 LinEq1:  Iter=  2 NonCon=     1 RMS=1.06D-03 Max=1.33D-02
 LinEq1:  Iter=  3 NonCon=     1 RMS=2.35D-04 Max=2.26D-03
 LinEq1:  Iter=  4 NonCon=     1 RMS=8.03D-05 Max=7.10D-04
 LinEq1:  Iter=  5 NonCon=     1 RMS=2.41D-05 Max=2.34D-04
 LinEq1:  Iter=  6 NonCon=     1 RMS=6.59D-06 Max=3.52D-05
 LinEq1:  Iter=  7 NonCon=     1 RMS=2.96D-06 Max=3.47D-05
 LinEq1:  Iter=  8 NonCon=     1 RMS=7.50D-07 Max=8.89D-06
 LinEq1:  Iter=  9 NonCon=     1 RMS=1.68D-07 Max=1.86D-06
 LinEq1:  Iter= 10 NonCon=     1 RMS=6.38D-08 Max=1.09D-06
 LinEq1:  Iter= 11 NonCon=     1 RMS=8.88D-09 Max=6.86D-08
 LinEq1:  Iter= 12 NonCon=     1 RMS=1.50D-09 Max=1.12D-08
 LinEq1:  Iter= 13 NonCon=     1 RMS=2.94D-10 Max=1.71D-09
 LinEq1:  Iter= 14 NonCon=     0 RMS=4.56D-11 Max=2.58D-10
 Linear equations converged to 1.000D-10 1.000D-09 after    14 iterations.
 End of Minotr Frequency-dependent properties file   721 does not exist.
 End of Minotr Frequency-dependent properties file   722 does not exist.

 **********************************************************************

            Population analysis using the SCF density.

 **********************************************************************

 Orbital symmetries:
       Occupied  (A) (A) (A) (A) (A) (A) (A) (A) (A) (A) (A) (A)
                 (A) (A) (A) (A) (A) (A) (A) (A)
       Virtual   (A) (A) (A) (A) (A) (A) (A) (A) (A) (A) (A) (A)
                 (A) (A) (A) (A) (A) (A) (A) (A) (A) (A) (A) (A)
                 (A) (A) (A) (A) (A) (A) (A) (A) (A) (A) (A) (A)
                 (A) (A) (A) (A) (A) (A) (A) (A) (A)
 The electronic state is 1-A.
 Alpha  occ. eigenvalues --  -26.32566 -11.40975 -11.27031  -1.64273  -1.12534
 Alpha  occ. eigenvalues --   -1.03138  -0.81535  -0.72522  -0.70868  -0.69898
 Alpha  occ. eigenvalues --   -0.65040  -0.61090  -0.56357  -0.48113  -0.45926
 Alpha  occ. eigenvalues --   -0.44190  -0.43017  -0.39537  -0.39006  -0.27889
 Alpha virt. eigenvalues --   -0.02855   0.07641   0.08858   0.09901   0.10799
 Alpha virt. eigenvalues --    0.11124   0.13479   0.14714   0.17314   0.18486
 Alpha virt. eigenvalues --    0.23218   0.28477   0.33058   0.37853   0.46739
 Alpha virt. eigenvalues --    0.47319   0.48200   0.49226   0.50116   0.51323
 Alpha virt. eigenvalues --    0.53394   0.57502   0.60466   0.61231   0.63139
 Alpha virt. eigenvalues --    0.63333   0.64325   0.76709   0.87521   1.11176
 Alpha virt. eigenvalues --    1.16333   1.17232   1.23475   1.27032   1.29452
 Alpha virt. eigenvalues --    1.33205   1.33648   1.54756   2.24728   7.12434
 Alpha virt. eigenvalues --   12.30907  13.57099  23.66949  24.02913  55.15041
          Condensed to atoms (all electrons):
              1          2          3          4          5          6
     1  C    5.213448   0.273749   0.002103  -0.000001   0.000002  -0.053198
     2  C    0.273749   5.944138  -0.026828   0.000066   0.000200   0.192745
     3  H    0.002103  -0.026828   0.835347   0.000019   0.000009   0.360670
     4  H   -0.000001   0.000066   0.000019   0.858113  -0.011840  -0.008658
     5  H    0.000002   0.000200   0.000009  -0.011840   0.861530  -0.010310
     6  Sn  -0.053198   0.192745   0.360670  -0.008658  -0.010310   2.659705
     7  Sn  -0.000196  -0.021261  -0.010077   0.337540   0.337445   0.249269
     8  Br   0.259813  -0.115559  -0.000165   0.000006   0.000011   0.002379
     9  F    0.185362  -0.052887  -0.000301   0.000000   0.000000   0.000732
    10  H   -0.015612   0.371889   0.000045   0.000000   0.000002  -0.010934
              7          8          9         10
     1  C   -0.000196   0.259813   0.185362  -0.015612
     2  C   -0.021261  -0.115559  -0.052887   0.371889
     3  H   -0.010077  -0.000165  -0.000301   0.000045
     4  H    0.337540   0.000006   0.000000   0.000000
     5  H    0.337445   0.000011   0.000000   0.000002
     6  Sn   0.249269   0.002379   0.000732  -0.010934
     7  Sn   2.780091  -0.000621   0.000074  -0.000222
     8  Br  -0.000621   6.819715  -0.052309  -0.004642
     9  F    0.000074  -0.052309   9.235030   0.001585
    10  H   -0.000222  -0.004642   0.001585   0.432692
 Mulliken atomic charges:
              1
     1  C    0.134531
     2  C   -0.566253
     3  H   -0.160823
     4  H   -0.175246
     5  H   -0.177050
     6  Sn   0.617600
     7  Sn   0.327958
     8  Br   0.091372
     9  F   -0.317287
    10  H    0.225197
 Sum of Mulliken atomic charges =   0.00000
 Mulliken charges with hydrogens summed into heavy atoms:
              1
     1  C    0.134531
     2  C   -0.341056
     6  Sn   0.456777
     7  Sn  -0.024337
     8  Br   0.091372
     9  F   -0.317287
 Sum of Mulliken charges with hydrogens summed into heavy atoms =   0.00000
 Electronic spatial extent (au):  <R**2>=           1327.0228
 Charge=              0.0000 electrons
 Dipole moment (field-independent basis, Debye):
    X=             -1.7990    Y=             -1.1358    Z=              0.4322  Tot=              2.1710
 Quadrupole moment (field-independent basis, Debye-Ang):
   XX=            -74.0538   YY=            -67.1667   ZZ=            -70.0846
   XY=             -2.3479   XZ=              4.6716   YZ=              2.3103
 Traceless Quadrupole moment (field-independent basis, Debye-Ang):
   XX=             -3.6188   YY=              3.2683   ZZ=              0.3504
   XY=             -2.3479   XZ=              4.6716   YZ=              2.3103
 Octapole moment (field-independent basis, Debye-Ang**2):
  XXX=            -97.2429  YYY=             -4.0205  ZZZ=             -0.7175  XYY=            -36.7990
  XXY=            -23.8404  XXZ=            -10.7555  XZZ=            -26.3712  YZZ=              1.3883
  YYZ=              3.4414  XYZ=             -1.4910
 Hexadecapole moment (field-independent basis, Debye-Ang**3):
 XXXX=          -3116.5087 YYYY=           -403.4236 ZZZZ=           -160.8085 XXXY=             -3.7916
 XXXZ=             78.2995 YYYX=            -13.5792 YYYZ=             28.8770 ZZZX=             20.2542
 ZZZY=             16.5912 XXYY=           -579.2106 XXZZ=           -559.0873 YYZZ=            -98.9063
 XXYZ=             24.1247 YYXZ=             22.0162 ZZXY=             -1.9764
 N-N= 1.344604304045D+02 E-N=-7.261249402943D+02  KE= 1.841103168966D+02
   1 Symmetry operations used in ECPInt.
 ECPInt:  NShTT=     780 NPrTT=    3579 LenC2=     766 LenP2D=    2848.
 LDataN:  DoStor=T MaxTD1= 6 Len=  172
 Calling FoFJK, ICntrl=      2127 FMM=F ISym2X=0 I1Cent= 0 IOpClX= 0 NMat=1 NMatS=1 NMatT=0.
 ***** Axes restored to original set *****
 -------------------------------------------------------------------
 Center     Atomic                   Forces (Hartrees/Bohr)
 Number     Number              X              Y              Z
 -------------------------------------------------------------------
      1        6           0.021737101    0.013358805   -0.002047555
      2        6          -0.019011022   -0.034739746    0.002101051
      3        1          -0.003331849    0.002861022   -0.002323334
      4        1          -0.004276934   -0.000351956    0.000047431
      5        1           0.003354615   -0.001772937    0.001649140
      6       50          -0.000973935   -0.008654871    0.000971188
      7       50           0.001511084    0.007296212   -0.000379182
      8       35           0.015002870    0.005503692   -0.001397787
      9        9          -0.024306942    0.027685432    0.001343864
     10        1           0.010295011   -0.011185653    0.000035185
 -------------------------------------------------------------------
 Cartesian Forces:  Max     0.034739746 RMS     0.011927656

 GradGradGradGradGradGradGradGradGradGradGradGradGradGradGradGradGradGrad
 Berny optimization.
 Internal  Forces:  Max     0.048213046 RMS     0.011400184
 Search for a local minimum.
 Step number   1 out of a maximum of   43
 All quantities printed in internal units (Hartrees-Bohrs-Radians)
 Mixed Optimization -- RFO/linear search
 Second derivative matrix not updated -- first step.
     Eigenvalues ---    0.00230   0.00230   0.01692   0.02951   0.03175
     Eigenvalues ---    0.03176   0.05320   0.07166   0.11850   0.12024
     Eigenvalues ---    0.12050   0.12169   0.12312   0.15991   0.16000
     Eigenvalues ---    0.16000   0.17164   0.22003   0.23217   0.25000
     Eigenvalues ---    0.25000   0.36717   0.49718   0.624611000.00000
     Eigenvalues --- 1000.000001000.000001000.000001000.000001000.00000
     Eigenvalues --- 1000.000001000.000001000.00000
 RFO step:  Lambda=-9.45150390D-03 EMin= 2.30000000D-03
 Linear search not attempted -- first point.
 Iteration  1 RMS(Cart)=  0.03986677 RMS(Int)=  0.00018328
 Iteration  2 RMS(Cart)=  0.00031176 RMS(Int)=  0.00000980
 Iteration  3 RMS(Cart)=  0.00000005 RMS(Int)=  0.00000980
 Variable       Old X    -DE/DX   Delta X   Delta X   Delta X     New X
                                 (Linear)    (Quad)   (Total)
    R1        2.49044   0.04821   0.00000   0.07604   0.07604   2.56648
    R2        3.63428   0.01604   0.00000   0.08856   0.08856   3.72284
    R3        2.60151   0.03687   0.00000   0.07277   0.07277   2.67427
    R4        4.10081   0.00370   0.00000   0.02894   0.02894   4.12975
    R5        2.02975   0.01516   0.00000   0.04026   0.04026   2.07002
    R6        3.24846   0.00487   0.00000   0.03676   0.03676   3.28522
    R7        3.26580   0.00408   0.00000   0.03136   0.03136   3.29716
    R8        3.26757   0.00389   0.00000   0.02996   0.02996   3.29753
    R9        5.26421  -0.00536   0.00000  -0.06613  -0.06613   5.19808
    A1        2.22624  -0.00065   0.00000  -0.00249  -0.00249   2.22375
    A2        2.13665   0.00021   0.00000   0.00085   0.00084   2.13749
    A3        1.92024   0.00044   0.00000   0.00171   0.00170   1.92194
    A4        2.17203  -0.00053   0.00000  -0.00228  -0.00228   2.16975
    A5        2.04545   0.00132   0.00000   0.00742   0.00742   2.05287
    A6        2.06474  -0.00079   0.00000  -0.00504  -0.00505   2.05970
    A7        1.79773   0.00175   0.00000   0.01416   0.01417   1.81191
    A8        1.96943  -0.00087   0.00000  -0.00223  -0.00223   1.96720
    A9        2.04401  -0.00098   0.00000  -0.00631  -0.00631   2.03770
   A10        1.77926   0.00236   0.00000   0.02449   0.02445   1.80371
   A11        1.92394  -0.00074   0.00000   0.00063   0.00062   1.92456
   A12        1.94100  -0.00109   0.00000  -0.00158  -0.00159   1.93941
    D1        3.10703   0.00032   0.00000   0.00845   0.00845   3.11549
    D2        0.01334   0.00029   0.00000   0.00630   0.00630   0.01964
    D3       -0.02174  -0.00001   0.00000   0.00051   0.00051  -0.02123
    D4       -3.11543  -0.00004   0.00000  -0.00164  -0.00164  -3.11708
    D5        0.57906   0.00006   0.00000  -0.01492  -0.01493   0.56414
    D6        2.79937  -0.00046   0.00000  -0.01416  -0.01415   2.78523
    D7       -2.61091   0.00015   0.00000  -0.01244  -0.01245  -2.62336
    D8       -0.39061  -0.00038   0.00000  -0.01167  -0.01167  -0.40228
    D9        3.01593   0.00044   0.00000   0.00651   0.00653   3.02246
   D10        1.05572  -0.00138   0.00000  -0.02258  -0.02258   1.03313
   D11       -1.18444   0.00134   0.00000   0.01911   0.01912  -1.16533
   D12        3.13853  -0.00048   0.00000  -0.00998  -0.01000   3.12853
         Item               Value     Threshold  Converged?
 Maximum Force            0.048213     0.000450     NO 
 RMS     Force            0.011400     0.000300     NO 
 Maximum Displacement     0.102898     0.001800     NO 
 RMS     Displacement     0.039960     0.001200     NO 
 Predicted change in Energy=-4.876007D-03
 GradGradGradGradGradGradGradGradGradGradGradGradGradGradGradGradGradGrad

                          Input orientation:                          
 ---------------------------------------------------------------------
 Center     Atomic      Atomic             Coordinates (Angstroms)
 Number     Number       Type             X           Y           Z
 ---------------------------------------------------------------------
      1          6           0        2.303172    2.941533   -0.029540
      2          6           0        1.925373    1.638925    0.041005
      3          1           0       -1.062070    2.170823   -0.595154
      4          1           0       -2.115586   -2.176639   -0.154291
      5          1           0        0.507988   -2.725513    0.402768
      6         50           0       -0.142580    0.965774    0.256110
      7         50           0       -0.496523   -1.646191   -0.530491
      8         35           0        4.135153    3.649813   -0.182021
      9          9           0        1.371153    4.005858    0.005709
     10          1           0        2.715041    0.879830    0.030382
 ---------------------------------------------------------------------
                    Distance matrix (angstroms):
                    1          2          3          4          5
     1  C    0.000000
     2  C    1.358122   0.000000
     3  H    3.498395   3.100392   0.000000
     4  H    6.762889   5.561118   4.494962   0.000000
     5  H    5.960284   4.603062   5.237846   2.737648   0.000000
     6  Sn   3.157043   2.185368   1.738463   3.733088   3.751047
     7  Sn   5.397819   4.121186   3.859225   1.744783   1.744978
     8  Br   1.970042   2.996087   5.419338   8.545178   7.358199
     9  F    1.415165   2.431209   3.106278   7.099734   6.798093
    10  H    2.103294   1.095406   4.040362   5.719359   4.243613
                    6          7          8          9         10
     6  Sn   0.000000
     7  Sn   2.750705   0.000000
     8  Br   5.069026   7.044253   0.000000
     9  F    3.405319   5.976736   2.793154   0.000000
    10  H    2.867811   4.124257   3.120039   3.402748   0.000000
 Stoichiometry    C2H4BrFSn2
 Framework group  C1[X(C2H4BrFSn2)]
 Deg. of freedom    24
 Full point group                 C1      NOp   1
 Largest Abelian subgroup         C1      NOp   1
 Largest concise Abelian subgroup C1      NOp   1
                         Standard orientation:                         
 ---------------------------------------------------------------------
 Center     Atomic      Atomic             Coordinates (Angstroms)
 Number     Number       Type             X           Y           Z
 ---------------------------------------------------------------------
      1          6           0        2.385780    0.228804   -0.054740
      2          6           0        1.151263   -0.271704    0.209746
      3          1           0       -0.397029    2.087146   -1.075187
      4          1           0       -4.375770    0.320287    0.043965
      5          1           0       -3.078442   -1.801879    1.187674
      6         50           0       -0.690510    0.903718    0.164014
      7         50           0       -2.938710   -0.655468   -0.120441
      8         35           0        4.104096   -0.733243   -0.000709
      9          9           0        2.596004    1.580796   -0.416148
     10          1           0        1.082594   -1.324314    0.505060
 ---------------------------------------------------------------------
 Rotational constants (GHZ):      1.9477669      0.1902498      0.1746706
 Standard basis: SDD (6D, 10F)
 There are    65 symmetry adapted basis functions of A   symmetry.
 Integral buffers will be    131072 words long.
 Raffenetti 1 integral format.
 Two-electron integral symmetry is turned on.
    65 basis functions,   139 primitive gaussians,    65 cartesian basis functions
    20 alpha electrons       20 beta electrons
       nuclear repulsion energy       131.8133926181 Hartrees.
 NAtoms=   10 NActive=   10 NUniq=   10 SFac= 7.50D-01 NAtFMM=   80 NAOKFM=F Big=F
 One-electron integrals computed using PRISM.
   1 Symmetry operations used in ECPInt.
 ECPInt:  NShTT=     780 NPrTT=    3579 LenC2=     766 LenP2D=    2841.
 LDataN:  DoStor=T MaxTD1= 5 Len=  102
 NBasis=    65 RedAO= T  NBF=    65
 NBsUse=    65 1.00D-06 NBFU=    65
 Initial guess read from the read-write file.
 B after Tr=     0.000000    0.000000    0.000000
         Rot=    1.000000    0.000000    0.000000    0.000000 Ang=   0.00 deg.
 Initial guess orbital symmetries:
       Occupied  (A) (A) (A) (A) (A) (A) (A) (A) (A) (A) (A) (A)
                 (A) (A) (A) (A) (A) (A) (A) (A)
       Virtual   (A) (A) (A) (A) (A) (A) (A) (A) (A) (A) (A) (A)
                 (A) (A) (A) (A) (A) (A) (A) (A) (A) (A) (A) (A)
                 (A) (A) (A) (A) (A) (A) (A) (A) (A) (A) (A) (A)
                 (A) (A) (A) (A) (A) (A) (A) (A) (A)
 Harris functional with IExCor=  205 diagonalized for initial guess.
 ExpMin= 3.61D-02 ExpMax= 9.99D+03 ExpMxC= 1.51D+03 IAcc=3 IRadAn=         0 AccDes= 0.00D+00
 HarFok:  IExCor=  205 AccDes= 0.00D+00 IRadAn=         0 IDoV= 1
 ScaDFX=  1.000000  1.000000  1.000000  1.000000
 Defaulting to unpruned grid for atomic number  50.
 Defaulting to unpruned grid for atomic number  50.
 Defaulting to unpruned grid for atomic number  50.
 Defaulting to unpruned grid for atomic number  50.
 Defaulting to unpruned grid for atomic number  50.
 Defaulting to unpruned grid for atomic number  50.
 Defaulting to unpruned grid for atomic number  50.
 Defaulting to unpruned grid for atomic number  50.
 Defaulting to unpruned grid for atomic number  50.
 Defaulting to unpruned grid for atomic number  50.
 Defaulting to unpruned grid for atomic number  50.
 Defaulting to unpruned grid for atomic number  50.
 Defaulting to unpruned grid for atomic number  50.
 Defaulting to unpruned grid for atomic number  50.
 Defaulting to unpruned grid for atomic number  50.
 Defaulting to unpruned grid for atomic number  50.
 Defaulting to unpruned grid for atomic number  50.
 Defaulting to unpruned grid for atomic number  50.
 Defaulting to unpruned grid for atomic number  50.
 Defaulting to unpruned grid for atomic number  50.
 FoFCou: FMM=F IPFlag=           0 FMFlag=      100000 FMFlg1=           0
         NFxFlg=           0 DoJE=T BraDBF=F KetDBF=T FulRan=T
         Omega=  0.000000  0.000000  1.000000  0.000000  0.000000 ICntrl=     500 IOpCl=  0
         NMat0=    1 NMatS0=    1 NMatT0=    0 NMatD0=    1 NMtDS0=    0 NMtDT0=    0
         I1Cent=           4 NGrid=           0.
 Petite list used in FoFCou.
 Requested convergence on RMS density matrix=1.00D-08 within 128 cycles.
 Requested convergence on MAX density matrix=1.00D-06.
 Requested convergence on             energy=1.00D-06.
 No special actions if energy rises.
 Keep R1 ints in memory in canonical form, NReq=3134234.
 SCF Done:  E(RHF) =  -196.997093294     A.U. after   13 cycles
             Convg  =    0.5768D-08             -V/T =  2.0718
 ExpMin= 3.61D-02 ExpMax= 9.99D+03 ExpMxC= 1.51D+03 IAcc=3 IRadAn=         5 AccDes= 0.00D+00
 HarFok:  IExCor=  205 AccDes= 0.00D+00 IRadAn=         5 IDoV=-2
 ScaDFX=  1.000000  1.000000  1.000000  1.000000
 Defaulting to unpruned grid for atomic number  50.
 Defaulting to unpruned grid for atomic number  50.
 Defaulting to unpruned grid for atomic number  50.
 Defaulting to unpruned grid for atomic number  50.
 Defaulting to unpruned grid for atomic number  50.
 Defaulting to unpruned grid for atomic number  50.
 Defaulting to unpruned grid for atomic number  50.
 Defaulting to unpruned grid for atomic number  50.
 Defaulting to unpruned grid for atomic number  50.
 Defaulting to unpruned grid for atomic number  50.
 Defaulting to unpruned grid for atomic number  50.
 Defaulting to unpruned grid for atomic number  50.
 Defaulting to unpruned grid for atomic number  50.
 Defaulting to unpruned grid for atomic number  50.
 Defaulting to unpruned grid for atomic number  50.
 Defaulting to unpruned grid for atomic number  50.
 Defaulting to unpruned grid for atomic number  50.
 Defaulting to unpruned grid for atomic number  50.
 Defaulting to unpruned grid for atomic number  50.
 Defaulting to unpruned grid for atomic number  50.
 Range of M.O.s used for correlation:     4    65
 NBasis=    65 NAE=    20 NBE=    20 NFC=     3 NFV=     0
 NROrb=     62 NOA=    17 NOB=    17 NVA=    45 NVB=    45
 Fully direct method using O(ONN) memory.
 JobTyp=1 Pass  1:  I=   4 to  20 NPSUse= 20 ParTrn=T ParDer=T DoDerP=T.
 Spin components of T(2) and E(2):
     alpha-alpha T2 =       0.2180008189D-01 E2=     -0.4713907030D-01
     alpha-beta  T2 =       0.1655545361D+00 E2=     -0.3203319379D+00
     beta-beta   T2 =       0.2180008189D-01 E2=     -0.4713907030D-01
 ANorm=    0.1099615706D+01
 E2 =    -0.4146100785D+00 EUMP2 =    -0.19741170337241D+03
          IDoAtm=1111111111
          Differentiating once with respect to electric field.
                with respect to dipole field.
          Differentiating once with respect to nuclear coordinates.
          Keep R1 ints in memory in canonical form, NReq=3102463.
          There are     1 degrees of freedom in the 1st order CPHF.  IDoFFX=0.
 LinEq1:  Iter=  0 NonCon=     1 RMS=8.94D-03 Max=8.57D-02
 AX will form     1 AO Fock derivatives at one time.
 LinEq1:  Iter=  1 NonCon=     1 RMS=3.51D-03 Max=3.07D-02
 LinEq1:  Iter=  2 NonCon=     1 RMS=1.09D-03 Max=1.37D-02
 LinEq1:  Iter=  3 NonCon=     1 RMS=2.45D-04 Max=2.37D-03
 LinEq1:  Iter=  4 NonCon=     1 RMS=8.59D-05 Max=8.26D-04
 LinEq1:  Iter=  5 NonCon=     1 RMS=2.19D-05 Max=1.10D-04
 LinEq1:  Iter=  6 NonCon=     1 RMS=5.50D-06 Max=3.36D-05
 LinEq1:  Iter=  7 NonCon=     1 RMS=1.73D-06 Max=2.02D-05
 LinEq1:  Iter=  8 NonCon=     1 RMS=7.79D-07 Max=7.44D-06
 LinEq1:  Iter=  9 NonCon=     1 RMS=1.73D-07 Max=1.41D-06
 LinEq1:  Iter= 10 NonCon=     1 RMS=6.19D-08 Max=1.14D-06
 LinEq1:  Iter= 11 NonCon=     1 RMS=1.10D-08 Max=8.59D-08
 LinEq1:  Iter= 12 NonCon=     1 RMS=1.89D-09 Max=1.32D-08
 LinEq1:  Iter= 13 NonCon=     1 RMS=3.74D-10 Max=2.55D-09
 LinEq1:  Iter= 14 NonCon=     0 RMS=5.88D-11 Max=2.87D-10
 Linear equations converged to 1.000D-10 1.000D-09 after    14 iterations.
 End of Minotr Frequency-dependent properties file   721 does not exist.
 End of Minotr Frequency-dependent properties file   722 does not exist.
   1 Symmetry operations used in ECPInt.
 ECPInt:  NShTT=     780 NPrTT=    3579 LenC2=     766 LenP2D=    2841.
 LDataN:  DoStor=T MaxTD1= 6 Len=  172
 Calling FoFJK, ICntrl=      2127 FMM=F ISym2X=0 I1Cent= 0 IOpClX= 0 NMat=1 NMatS=1 NMatT=0.
 ***** Axes restored to original set *****
 -------------------------------------------------------------------
 Center     Atomic                   Forces (Hartrees/Bohr)
 Number     Number              X              Y              Z
 -------------------------------------------------------------------
      1        6           0.008439087   -0.007368327   -0.000675157
      2        6          -0.002370735    0.000951278    0.000119745
      3        1          -0.000115146   -0.000515421    0.000333485
      4        1           0.000299504    0.000504620   -0.000454607
      5        1           0.000150169    0.000518116   -0.000512664
      6       50          -0.000065389    0.000699609   -0.000583295
      7       50          -0.000299477   -0.000270049    0.001082799
      8       35          -0.002326319   -0.000409305    0.000209872
      9        9          -0.005072258    0.004830231    0.000315939
     10        1           0.001360562    0.001059248    0.000163884
 -------------------------------------------------------------------
 Cartesian Forces:  Max     0.008439087 RMS     0.002542649

 GradGradGradGradGradGradGradGradGradGradGradGradGradGradGradGradGradGrad
 Berny optimization.
 Using GEDIIS/GDIIS optimizer.
 Internal  Forces:  Max     0.006981178 RMS     0.001532134
 Search for a local minimum.
 Step number   2 out of a maximum of   43
 All quantities printed in internal units (Hartrees-Bohrs-Radians)
 Mixed Optimization -- RFO/linear search
 Update second derivatives using D2CorX and points    1    2
 DE= -4.65D-03 DEPred=-4.88D-03 R= 9.54D-01
 SS=  1.41D+00  RLast= 1.78D-01 DXNew= 5.0454D-01 5.3475D-01
 Trust test= 9.54D-01 RLast= 1.78D-01 DXMaxT set to 5.05D-01
 Use linear search instead of GDIIS.
     Eigenvalues ---    0.00230   0.00230   0.01701   0.02925   0.03175
     Eigenvalues ---    0.03176   0.05198   0.07139   0.11866   0.12035
     Eigenvalues ---    0.12116   0.12165   0.12401   0.15904   0.16000
     Eigenvalues ---    0.16029   0.18279   0.21998   0.23191   0.24994
     Eigenvalues ---    0.25039   0.36645   0.44944   0.660351000.00000
     Eigenvalues --- 1000.000001000.000001000.000001000.000001000.00000
     Eigenvalues --- 1000.000001000.000001000.00000
 RFO step:  Lambda=-3.15445725D-04 EMin= 2.29840070D-03
 Quartic linear search produced a step of  0.01934.
 Iteration  1 RMS(Cart)=  0.05599226 RMS(Int)=  0.00105375
 Iteration  2 RMS(Cart)=  0.00148648 RMS(Int)=  0.00000852
 Iteration  3 RMS(Cart)=  0.00000062 RMS(Int)=  0.00000850
 Variable       Old X    -DE/DX   Delta X   Delta X   Delta X     New X
                                 (Linear)    (Quad)   (Total)
    R1        2.56648  -0.00253   0.00147  -0.00334  -0.00187   2.56461
    R2        3.72284  -0.00233   0.00171  -0.01273  -0.01102   3.71182
    R3        2.67427   0.00698   0.00141   0.01507   0.01647   2.69075
    R4        4.12975  -0.00027   0.00056  -0.00197  -0.00141   4.12834
    R5        2.07002   0.00025   0.00078   0.00111   0.00189   2.07191
    R6        3.28522  -0.00046   0.00071  -0.00332  -0.00261   3.28261
    R7        3.29716  -0.00053   0.00061  -0.00406  -0.00345   3.29371
    R8        3.29753  -0.00051   0.00058  -0.00391  -0.00333   3.29420
    R9        5.19808  -0.00077  -0.00128  -0.01186  -0.01314   5.18494
    A1        2.22375   0.00171  -0.00005   0.00692   0.00687   2.23061
    A2        2.13749  -0.00171   0.00002  -0.00697  -0.00696   2.13053
    A3        1.92194   0.00001   0.00003   0.00004   0.00007   1.92201
    A4        2.16975  -0.00030  -0.00004  -0.00144  -0.00149   2.16826
    A5        2.05287  -0.00159   0.00014  -0.01037  -0.01023   2.04264
    A6        2.05970   0.00189  -0.00010   0.01164   0.01154   2.07124
    A7        1.81191   0.00091   0.00027   0.00789   0.00817   1.82007
    A8        1.96720  -0.00075  -0.00004  -0.00251  -0.00255   1.96465
    A9        2.03770  -0.00033  -0.00012  -0.00240  -0.00252   2.03518
   A10        1.80371   0.00089   0.00047   0.01177   0.01222   1.81593
   A11        1.92456  -0.00029   0.00001   0.00097   0.00097   1.92553
   A12        1.93941  -0.00022  -0.00003   0.00133   0.00129   1.94069
    D1        3.11549  -0.00006   0.00016  -0.00350  -0.00332   3.11217
    D2        0.01964  -0.00003   0.00012   0.00074   0.00085   0.02049
    D3       -0.02123   0.00009   0.00001   0.00119   0.00121  -0.02001
    D4       -3.11708   0.00012  -0.00003   0.00543   0.00538  -3.11170
    D5        0.56414  -0.00001  -0.00029  -0.07199  -0.07226   0.49188
    D6        2.78523  -0.00025  -0.00027  -0.07094  -0.07120   2.71402
    D7       -2.62336  -0.00012  -0.00024  -0.07677  -0.07702  -2.70039
    D8       -0.40228  -0.00036  -0.00023  -0.07573  -0.07597  -0.47824
    D9        3.02246   0.00018   0.00013  -0.00555  -0.00542   3.01704
   D10        1.03313  -0.00060  -0.00044  -0.02121  -0.02166   1.01148
   D11       -1.16533   0.00055   0.00037   0.00126   0.00164  -1.16369
   D12        3.12853  -0.00023  -0.00019  -0.01440  -0.01460   3.11393
         Item               Value     Threshold  Converged?
 Maximum Force            0.006981     0.000450     NO 
 RMS     Force            0.001532     0.000300     NO 
 Maximum Displacement     0.178171     0.001800     NO 
 RMS     Displacement     0.056277     0.001200     NO 
 Predicted change in Energy=-1.601321D-04
 GradGradGradGradGradGradGradGradGradGradGradGradGradGradGradGradGradGrad

                          Input orientation:                          
 ---------------------------------------------------------------------
 Center     Atomic      Atomic             Coordinates (Angstroms)
 Number     Number       Type             X           Y           Z
 ---------------------------------------------------------------------
      1          6           0        2.303738    2.927754   -0.052181
      2          6           0        1.928826    1.629884    0.077387
      3          1           0       -1.067689    2.179452   -0.540129
      4          1           0       -2.116566   -2.164176   -0.166809
      5          1           0        0.525009   -2.721247    0.346230
      6         50           0       -0.141307    0.963522    0.284966
      7         50           0       -0.501316   -1.627652   -0.542314
      8         35           0        4.126143    3.645625   -0.199249
      9          9           0        1.354888    3.988808   -0.088089
     10          1           0        2.729394    0.882244    0.124666
 ---------------------------------------------------------------------
                    Distance matrix (angstroms):
                    1          2          3          4          5
     1  C    0.000000
     2  C    1.357134   0.000000
     3  H    3.487774   3.108449   0.000000
     4  H    6.743884   5.551551   4.484040   0.000000
     5  H    5.935808   4.579882   5.228687   2.747991   0.000000
     6  Sn   3.154381   2.184624   1.737081   3.726693   3.745031
     7  Sn   5.372176   4.111102   3.849003   1.742956   1.743217
     8  Br   1.964212   2.994652   5.407564   8.527969   7.335037
     9  F    1.423883   2.433374   3.057284   7.065154   6.775114
    10  H    2.096800   1.096408   4.067252   5.731401   4.230077
                    6          7          8          9         10
     6  Sn   0.000000
     7  Sn   2.743753   0.000000
     8  Br   5.063524   7.024138   0.000000
     9  F    3.395604   5.932658   2.794636   0.000000
    10  H    2.876322   4.145109   3.113214   3.403715   0.000000
 Stoichiometry    C2H4BrFSn2
 Framework group  C1[X(C2H4BrFSn2)]
 Deg. of freedom    24
 Full point group                 C1      NOp   1
 Largest Abelian subgroup         C1      NOp   1
 Largest concise Abelian subgroup C1      NOp   1
                         Standard orientation:                         
 ---------------------------------------------------------------------
 Center     Atomic      Atomic             Coordinates (Angstroms)
 Number     Number       Type             X           Y           Z
 ---------------------------------------------------------------------
      1          6           0       -2.374882    0.216729    0.066002
      2          6           0       -1.148674   -0.267296   -0.256406
      3          1           0        0.395453    2.097165    1.042612
      4          1           0        4.367836    0.308584   -0.019350
      5          1           0        3.062886   -1.829356   -1.149738
      6         50           0        0.693043    0.905596   -0.185823
      7         50           0        2.925242   -0.657567    0.133527
      8         35           0       -4.097250   -0.725000   -0.002736
      9          9           0       -2.566131    1.555799    0.510701
     10          1           0       -1.100178   -1.301613   -0.616886
 ---------------------------------------------------------------------
 Rotational constants (GHZ):      1.9367921      0.1912514      0.1758111
 Standard basis: SDD (6D, 10F)
 There are    65 symmetry adapted basis functions of A   symmetry.
 Integral buffers will be    131072 words long.
 Raffenetti 1 integral format.
 Two-electron integral symmetry is turned on.
    65 basis functions,   139 primitive gaussians,    65 cartesian basis functions
    20 alpha electrons       20 beta electrons
       nuclear repulsion energy       131.8487046965 Hartrees.
 NAtoms=   10 NActive=   10 NUniq=   10 SFac= 7.50D-01 NAtFMM=   80 NAOKFM=F Big=F
 One-electron integrals computed using PRISM.
   1 Symmetry operations used in ECPInt.
 ECPInt:  NShTT=     780 NPrTT=    3579 LenC2=     766 LenP2D=    2843.
 LDataN:  DoStor=T MaxTD1= 5 Len=  102
 NBasis=    65 RedAO= T  NBF=    65
 NBsUse=    65 1.00D-06 NBFU=    65
 Initial guess read from the read-write file.
 B after Tr=     0.000000    0.000000    0.000000
         Rot=    1.000000    0.000000    0.000000    0.000000 Ang=   0.00 deg.
 Initial guess orbital symmetries:
       Occupied  (A) (A) (A) (A) (A) (A) (A) (A) (A) (A) (A) (A)
                 (A) (A) (A) (A) (A) (A) (A) (A)
       Virtual   (A) (A) (A) (A) (A) (A) (A) (A) (A) (A) (A) (A)
                 (A) (A) (A) (A) (A) (A) (A) (A) (A) (A) (A) (A)
                 (A) (A) (A) (A) (A) (A) (A) (A) (A) (A) (A) (A)
                 (A) (A) (A) (A) (A) (A) (A) (A) (A)
 Harris functional with IExCor=  205 diagonalized for initial guess.
 ExpMin= 3.61D-02 ExpMax= 9.99D+03 ExpMxC= 1.51D+03 IAcc=3 IRadAn=         0 AccDes= 0.00D+00
 HarFok:  IExCor=  205 AccDes= 0.00D+00 IRadAn=         0 IDoV= 1
 ScaDFX=  1.000000  1.000000  1.000000  1.000000
 Defaulting to unpruned grid for atomic number  50.
 Defaulting to unpruned grid for atomic number  50.
 Defaulting to unpruned grid for atomic number  50.
 Defaulting to unpruned grid for atomic number  50.
 Defaulting to unpruned grid for atomic number  50.
 Defaulting to unpruned grid for atomic number  50.
 Defaulting to unpruned grid for atomic number  50.
 Defaulting to unpruned grid for atomic number  50.
 Defaulting to unpruned grid for atomic number  50.
 Defaulting to unpruned grid for atomic number  50.
 Defaulting to unpruned grid for atomic number  50.
 Defaulting to unpruned grid for atomic number  50.
 Defaulting to unpruned grid for atomic number  50.
 Defaulting to unpruned grid for atomic number  50.
 Defaulting to unpruned grid for atomic number  50.
 Defaulting to unpruned grid for atomic number  50.
 Defaulting to unpruned grid for atomic number  50.
 Defaulting to unpruned grid for atomic number  50.
 Defaulting to unpruned grid for atomic number  50.
 Defaulting to unpruned grid for atomic number  50.
 FoFCou: FMM=F IPFlag=           0 FMFlag=      100000 FMFlg1=           0
         NFxFlg=           0 DoJE=T BraDBF=F KetDBF=T FulRan=T
         Omega=  0.000000  0.000000  1.000000  0.000000  0.000000 ICntrl=     500 IOpCl=  0
         NMat0=    1 NMatS0=    1 NMatT0=    0 NMatD0=    1 NMtDS0=    0 NMtDT0=    0
         I1Cent=           4 NGrid=           0.
 Petite list used in FoFCou.
 Requested convergence on RMS density matrix=1.00D-08 within 128 cycles.
 Requested convergence on MAX density matrix=1.00D-06.
 Requested convergence on             energy=1.00D-06.
 No special actions if energy rises.
 Keep R1 ints in memory in canonical form, NReq=3134234.
 SCF Done:  E(RHF) =  -196.996847818     A.U. after   16 cycles
             Convg  =    0.5679D-08             -V/T =  2.0719
 ExpMin= 3.61D-02 ExpMax= 9.99D+03 ExpMxC= 1.51D+03 IAcc=3 IRadAn=         5 AccDes= 0.00D+00
 HarFok:  IExCor=  205 AccDes= 0.00D+00 IRadAn=         5 IDoV=-2
 ScaDFX=  1.000000  1.000000  1.000000  1.000000
 Defaulting to unpruned grid for atomic number  50.
 Defaulting to unpruned grid for atomic number  50.
 Defaulting to unpruned grid for atomic number  50.
 Defaulting to unpruned grid for atomic number  50.
 Defaulting to unpruned grid for atomic number  50.
 Defaulting to unpruned grid for atomic number  50.
 Defaulting to unpruned grid for atomic number  50.
 Defaulting to unpruned grid for atomic number  50.
 Defaulting to unpruned grid for atomic number  50.
 Defaulting to unpruned grid for atomic number  50.
 Defaulting to unpruned grid for atomic number  50.
 Defaulting to unpruned grid for atomic number  50.
 Defaulting to unpruned grid for atomic number  50.
 Defaulting to unpruned grid for atomic number  50.
 Defaulting to unpruned grid for atomic number  50.
 Defaulting to unpruned grid for atomic number  50.
 Defaulting to unpruned grid for atomic number  50.
 Defaulting to unpruned grid for atomic number  50.
 Defaulting to unpruned grid for atomic number  50.
 Defaulting to unpruned grid for atomic number  50.
 Range of M.O.s used for correlation:     4    65
 NBasis=    65 NAE=    20 NBE=    20 NFC=     3 NFV=     0
 NROrb=     62 NOA=    17 NOB=    17 NVA=    45 NVB=    45
 Fully direct method using O(ONN) memory.
 JobTyp=1 Pass  1:  I=   4 to  20 NPSUse= 20 ParTrn=T ParDer=T DoDerP=T.
 Spin components of T(2) and E(2):
     alpha-alpha T2 =       0.2184502259D-01 E2=     -0.4721234532D-01
     alpha-beta  T2 =       0.1657786380D+00 E2=     -0.3206391287D+00
     beta-beta   T2 =       0.2184502259D-01 E2=     -0.4721234532D-01
 ANorm=    0.1099758466D+01
 E2 =    -0.4150638193D+00 EUMP2 =    -0.19741191163719D+03
          IDoAtm=1111111111
          Differentiating once with respect to electric field.
                with respect to dipole field.
          Differentiating once with respect to nuclear coordinates.
          Keep R1 ints in memory in canonical form, NReq=3102463.
          There are     1 degrees of freedom in the 1st order CPHF.  IDoFFX=0.
 LinEq1:  Iter=  0 NonCon=     1 RMS=8.93D-03 Max=9.17D-02
 AX will form     1 AO Fock derivatives at one time.
 LinEq1:  Iter=  1 NonCon=     1 RMS=3.52D-03 Max=3.23D-02
 LinEq1:  Iter=  2 NonCon=     1 RMS=1.10D-03 Max=1.35D-02
 LinEq1:  Iter=  3 NonCon=     1 RMS=2.46D-04 Max=2.48D-03
 LinEq1:  Iter=  4 NonCon=     1 RMS=8.71D-05 Max=8.23D-04
 LinEq1:  Iter=  5 NonCon=     1 RMS=2.23D-05 Max=1.17D-04
 LinEq1:  Iter=  6 NonCon=     1 RMS=5.84D-06 Max=4.45D-05
 LinEq1:  Iter=  7 NonCon=     1 RMS=2.26D-06 Max=2.28D-05
 LinEq1:  Iter=  8 NonCon=     1 RMS=8.60D-07 Max=9.06D-06
 LinEq1:  Iter=  9 NonCon=     1 RMS=1.63D-07 Max=1.32D-06
 LinEq1:  Iter= 10 NonCon=     1 RMS=5.35D-08 Max=9.95D-07
 LinEq1:  Iter= 11 NonCon=     1 RMS=1.06D-08 Max=8.15D-08
 LinEq1:  Iter= 12 NonCon=     1 RMS=1.90D-09 Max=1.41D-08
 LinEq1:  Iter= 13 NonCon=     1 RMS=3.71D-10 Max=2.66D-09
 LinEq1:  Iter= 14 NonCon=     0 RMS=5.91D-11 Max=3.00D-10
 Linear equations converged to 1.000D-10 1.000D-09 after    14 iterations.
 End of Minotr Frequency-dependent properties file   721 does not exist.
 End of Minotr Frequency-dependent properties file   722 does not exist.
   1 Symmetry operations used in ECPInt.
 ECPInt:  NShTT=     780 NPrTT=    3579 LenC2=     766 LenP2D=    2843.
 LDataN:  DoStor=T MaxTD1= 6 Len=  172
 Calling FoFJK, ICntrl=      2127 FMM=F ISym2X=0 I1Cent= 0 IOpClX= 0 NMat=1 NMatS=1 NMatT=0.
 ***** Axes restored to original set *****
 -------------------------------------------------------------------
 Center     Atomic                   Forces (Hartrees/Bohr)
 Number     Number              X              Y              Z
 -------------------------------------------------------------------
      1        6           0.003938711   -0.002903566    0.000138610
      2        6          -0.001255403    0.000118318    0.000106047
      3        1           0.000037841   -0.000385508    0.000237021
      4        1           0.000180268    0.000111054   -0.000226846
      5        1          -0.000021969    0.000170337   -0.000211405
      6       50           0.000252632    0.000630235   -0.000350789
      7       50          -0.000159564   -0.000265885    0.000474666
      8       35          -0.001294375   -0.000004232    0.000041343
      9        9          -0.001794195    0.002013574   -0.000127673
     10        1           0.000116054    0.000515673   -0.000080974
 -------------------------------------------------------------------
 Cartesian Forces:  Max     0.003938711 RMS     0.001096964

 GradGradGradGradGradGradGradGradGradGradGradGradGradGradGradGradGradGrad
 Berny optimization.
 Using GEDIIS/GDIIS optimizer.
 Internal  Forces:  Max     0.002699322 RMS     0.000623468
 Search for a local minimum.
 Step number   3 out of a maximum of   43
 All quantities printed in internal units (Hartrees-Bohrs-Radians)
 Mixed Optimization -- En-DIIS/RFO-DIIS
 Update second derivatives using D2CorX and points    1    2    3
 DE= -2.08D-04 DEPred=-1.60D-04 R= 1.30D+00
 SS=  1.41D+00  RLast= 1.55D-01 DXNew= 8.4853D-01 4.6401D-01
 Trust test= 1.30D+00 RLast= 1.55D-01 DXMaxT set to 5.05D-01
 Use linear search instead of GDIIS.
     Eigenvalues ---    0.00225   0.00248   0.01690   0.02892   0.03175
     Eigenvalues ---    0.03196   0.04777   0.07145   0.11578   0.11927
     Eigenvalues ---    0.12035   0.12118   0.12384   0.14954   0.16003
     Eigenvalues ---    0.16068   0.17230   0.22202   0.22601   0.23769
     Eigenvalues ---    0.25384   0.36956   0.39573   0.654191000.00000
     Eigenvalues --- 1000.000001000.000001000.000001000.000001000.00000
     Eigenvalues --- 1000.000001000.000001000.00000
 RFO step:  Lambda=-3.16612593D-05 EMin= 2.25345582D-03
 Quartic linear search produced a step of  0.48103.
 Iteration  1 RMS(Cart)=  0.01944432 RMS(Int)=  0.00012239
 Iteration  2 RMS(Cart)=  0.00015943 RMS(Int)=  0.00000962
 Iteration  3 RMS(Cart)=  0.00000001 RMS(Int)=  0.00000962
 Variable       Old X    -DE/DX   Delta X   Delta X   Delta X     New X
                                 (Linear)    (Quad)   (Total)
    R1        2.56461  -0.00063  -0.00090   0.00062  -0.00028   2.56434
    R2        3.71182  -0.00121  -0.00530  -0.00452  -0.00982   3.70200
    R3        2.69075   0.00270   0.00792   0.00322   0.01114   2.70189
    R4        4.12834  -0.00036  -0.00068  -0.00338  -0.00406   4.12428
    R5        2.07191  -0.00027   0.00091  -0.00104  -0.00013   2.07178
    R6        3.28261  -0.00040  -0.00126  -0.00311  -0.00437   3.27824
    R7        3.29371  -0.00025  -0.00166  -0.00114  -0.00280   3.29091
    R8        3.29420  -0.00023  -0.00160  -0.00094  -0.00255   3.29166
    R9        5.18494  -0.00003  -0.00632   0.00296  -0.00336   5.18158
    A1        2.23061   0.00116   0.00330   0.00425   0.00755   2.23816
    A2        2.13053  -0.00057  -0.00335  -0.00072  -0.00407   2.12646
    A3        1.92201  -0.00059   0.00003  -0.00349  -0.00346   1.91855
    A4        2.16826   0.00035  -0.00072   0.00290   0.00218   2.17044
    A5        2.04264  -0.00065  -0.00492  -0.00158  -0.00650   2.03614
    A6        2.07124   0.00030   0.00555  -0.00117   0.00438   2.07562
    A7        1.82007   0.00041   0.00393   0.00258   0.00651   1.82659
    A8        1.96465  -0.00035  -0.00123  -0.00062  -0.00185   1.96279
    A9        2.03518  -0.00012  -0.00121  -0.00009  -0.00130   2.03387
   A10        1.81593   0.00018   0.00588   0.00150   0.00734   1.82328
   A11        1.92553   0.00018   0.00047   0.00323   0.00368   1.92921
   A12        1.94069   0.00005   0.00062   0.00176   0.00236   1.94306
    D1        3.11217   0.00005  -0.00160   0.00382   0.00223   3.11439
    D2        0.02049   0.00001   0.00041   0.00031   0.00071   0.02120
    D3       -0.02001  -0.00005   0.00058  -0.00270  -0.00212  -0.02213
    D4       -3.11170  -0.00009   0.00259  -0.00621  -0.00363  -3.11532
    D5        0.49188   0.00002  -0.03476   0.01334  -0.02141   0.47046
    D6        2.71402  -0.00007  -0.03425   0.01469  -0.01956   2.69446
    D7       -2.70039   0.00003  -0.03705   0.01690  -0.02016  -2.72055
    D8       -0.47824  -0.00006  -0.03654   0.01824  -0.01831  -0.49655
    D9        3.01704   0.00012  -0.00261   0.02093   0.01834   3.03539
   D10        1.01148  -0.00024  -0.01042   0.01612   0.00569   1.01717
   D11       -1.16369   0.00029   0.00079   0.02387   0.02467  -1.13902
   D12        3.11393  -0.00007  -0.00702   0.01906   0.01202   3.12595
         Item               Value     Threshold  Converged?
 Maximum Force            0.002699     0.000450     NO 
 RMS     Force            0.000623     0.000300     NO 
 Maximum Displacement     0.051783     0.001800     NO 
 RMS     Displacement     0.019477     0.001200     NO 
 Predicted change in Energy=-4.027051D-05
 GradGradGradGradGradGradGradGradGradGradGradGradGradGradGradGradGradGrad

                          Input orientation:                          
 ---------------------------------------------------------------------
 Center     Atomic      Atomic             Coordinates (Angstroms)
 Number     Number       Type             X           Y           Z
 ---------------------------------------------------------------------
      1          6           0        2.307417    2.922831   -0.058134
      2          6           0        1.930402    1.627546    0.088535
      3          1           0       -1.073530    2.177718   -0.513284
      4          1           0       -2.117890   -2.157738   -0.194211
      5          1           0        0.522622   -2.723364    0.344435
      6         50           0       -0.137832    0.962904    0.297966
      7         50           0       -0.497164   -1.622884   -0.540489
      8         35           0        4.120799    3.647731   -0.212764
      9          9           0        1.351694    3.984733   -0.114921
     10          1           0        2.734601    0.884735    0.147343
 ---------------------------------------------------------------------
                    Distance matrix (angstroms):
                    1          2          3          4          5
     1  C    0.000000
     2  C    1.356988   0.000000
     3  H    3.491871   3.112633   0.000000
     4  H    6.738994   5.549503   4.470869   0.000000
     5  H    5.935240   4.580147   5.225322   2.753611   0.000000
     6  Sn   3.153945   2.182476   1.734771   3.728441   3.745255
     7  Sn   5.363010   4.105368   3.844153   1.741473   1.741869
     8  Br   1.959016   2.994957   5.406691   8.522033   7.338133
     9  F    1.429778   2.435698   3.050526   7.055086   6.774727
    10  H    2.092497   1.096341   4.075549   5.737593   4.236753
                    6          7          8          9         10
     6  Sn   0.000000
     7  Sn   2.741975   0.000000
     8  Br   5.060146   7.015153   0.000000
     9  F    3.394203   5.919861   2.791251   0.000000
    10  H    2.877442   4.147960   3.112133   3.404585   0.000000
 Stoichiometry    C2H4BrFSn2
 Framework group  C1[X(C2H4BrFSn2)]
 Deg. of freedom    24
 Full point group                 C1      NOp   1
 Largest Abelian subgroup         C1      NOp   1
 Largest concise Abelian subgroup C1      NOp   1
                         Standard orientation:                         
 ---------------------------------------------------------------------
 Center     Atomic      Atomic             Coordinates (Angstroms)
 Number     Number       Type             X           Y           Z
 ---------------------------------------------------------------------
      1          6           0       -2.371670    0.209580    0.065080
      2          6           0       -1.145850   -0.264867   -0.272087
      3          1           0        0.399280    2.102113    1.031162
      4          1           0        4.366525    0.304213    0.022606
      5          1           0        3.070471   -1.823872   -1.149518
      6         50           0        0.693415    0.907238   -0.191616
      7         50           0        2.920075   -0.658857    0.136651
      8         35           0       -4.093396   -0.722486   -0.003151
      9          9           0       -2.559302    1.545637    0.538378
     10          1           0       -1.103049   -1.293480   -0.649032
 ---------------------------------------------------------------------
 Rotational constants (GHZ):      1.9322415      0.1916761      0.1762566
 Standard basis: SDD (6D, 10F)
 There are    65 symmetry adapted basis functions of A   symmetry.
 Integral buffers will be    131072 words long.
 Raffenetti 1 integral format.
 Two-electron integral symmetry is turned on.
    65 basis functions,   139 primitive gaussians,    65 cartesian basis functions
    20 alpha electrons       20 beta electrons
       nuclear repulsion energy       131.8394579140 Hartrees.
 NAtoms=   10 NActive=   10 NUniq=   10 SFac= 7.50D-01 NAtFMM=   80 NAOKFM=F Big=F
 One-electron integrals computed using PRISM.
   1 Symmetry operations used in ECPInt.
 ECPInt:  NShTT=     780 NPrTT=    3579 LenC2=     766 LenP2D=    2843.
 LDataN:  DoStor=T MaxTD1= 5 Len=  102
 NBasis=    65 RedAO= T  NBF=    65
 NBsUse=    65 1.00D-06 NBFU=    65
 Initial guess read from the read-write file.
 B after Tr=     0.000000    0.000000    0.000000
         Rot=    1.000000    0.000000    0.000000    0.000000 Ang=   0.00 deg.
 Initial guess orbital symmetries:
       Occupied  (A) (A) (A) (A) (A) (A) (A) (A) (A) (A) (A) (A)
                 (A) (A) (A) (A) (A) (A) (A) (A)
       Virtual   (A) (A) (A) (A) (A) (A) (A) (A) (A) (A) (A) (A)
                 (A) (A) (A) (A) (A) (A) (A) (A) (A) (A) (A) (A)
                 (A) (A) (A) (A) (A) (A) (A) (A) (A) (A) (A) (A)
                 (A) (A) (A) (A) (A) (A) (A) (A) (A)
 Harris functional with IExCor=  205 diagonalized for initial guess.
 ExpMin= 3.61D-02 ExpMax= 9.99D+03 ExpMxC= 1.51D+03 IAcc=3 IRadAn=         0 AccDes= 0.00D+00
 HarFok:  IExCor=  205 AccDes= 0.00D+00 IRadAn=         0 IDoV= 1
 ScaDFX=  1.000000  1.000000  1.000000  1.000000
 Defaulting to unpruned grid for atomic number  50.
 Defaulting to unpruned grid for atomic number  50.
 Defaulting to unpruned grid for atomic number  50.
 Defaulting to unpruned grid for atomic number  50.
 Defaulting to unpruned grid for atomic number  50.
 Defaulting to unpruned grid for atomic number  50.
 Defaulting to unpruned grid for atomic number  50.
 Defaulting to unpruned grid for atomic number  50.
 Defaulting to unpruned grid for atomic number  50.
 Defaulting to unpruned grid for atomic number  50.
 Defaulting to unpruned grid for atomic number  50.
 Defaulting to unpruned grid for atomic number  50.
 Defaulting to unpruned grid for atomic number  50.
 Defaulting to unpruned grid for atomic number  50.
 Defaulting to unpruned grid for atomic number  50.
 Defaulting to unpruned grid for atomic number  50.
 Defaulting to unpruned grid for atomic number  50.
 Defaulting to unpruned grid for atomic number  50.
 Defaulting to unpruned grid for atomic number  50.
 Defaulting to unpruned grid for atomic number  50.
 FoFCou: FMM=F IPFlag=           0 FMFlag=      100000 FMFlg1=           0
         NFxFlg=           0 DoJE=T BraDBF=F KetDBF=T FulRan=T
         Omega=  0.000000  0.000000  1.000000  0.000000  0.000000 ICntrl=     500 IOpCl=  0
         NMat0=    1 NMatS0=    1 NMatT0=    0 NMatD0=    1 NMtDS0=    0 NMtDT0=    0
         I1Cent=           4 NGrid=           0.
 Petite list used in FoFCou.
 Requested convergence on RMS density matrix=1.00D-08 within 128 cycles.
 Requested convergence on MAX density matrix=1.00D-06.
 Requested convergence on             energy=1.00D-06.
 No special actions if energy rises.
 Keep R1 ints in memory in canonical form, NReq=3134234.
 SCF Done:  E(RHF) =  -196.996665821     A.U. after   12 cycles
             Convg  =    0.4638D-08             -V/T =  2.0719
 ExpMin= 3.61D-02 ExpMax= 9.99D+03 ExpMxC= 1.51D+03 IAcc=3 IRadAn=         5 AccDes= 0.00D+00
 HarFok:  IExCor=  205 AccDes= 0.00D+00 IRadAn=         5 IDoV=-2
 ScaDFX=  1.000000  1.000000  1.000000  1.000000
 Defaulting to unpruned grid for atomic number  50.
 Defaulting to unpruned grid for atomic number  50.
 Defaulting to unpruned grid for atomic number  50.
 Defaulting to unpruned grid for atomic number  50.
 Defaulting to unpruned grid for atomic number  50.
 Defaulting to unpruned grid for atomic number  50.
 Defaulting to unpruned grid for atomic number  50.
 Defaulting to unpruned grid for atomic number  50.
 Defaulting to unpruned grid for atomic number  50.
 Defaulting to unpruned grid for atomic number  50.
 Defaulting to unpruned grid for atomic number  50.
 Defaulting to unpruned grid for atomic number  50.
 Defaulting to unpruned grid for atomic number  50.
 Defaulting to unpruned grid for atomic number  50.
 Defaulting to unpruned grid for atomic number  50.
 Defaulting to unpruned grid for atomic number  50.
 Defaulting to unpruned grid for atomic number  50.
 Defaulting to unpruned grid for atomic number  50.
 Defaulting to unpruned grid for atomic number  50.
 Defaulting to unpruned grid for atomic number  50.
 Range of M.O.s used for correlation:     4    65
 NBasis=    65 NAE=    20 NBE=    20 NFC=     3 NFV=     0
 NROrb=     62 NOA=    17 NOB=    17 NVA=    45 NVB=    45
 Fully direct method using O(ONN) memory.
 JobTyp=1 Pass  1:  I=   4 to  20 NPSUse= 20 ParTrn=T ParDer=T DoDerP=T.
 Spin components of T(2) and E(2):
     alpha-alpha T2 =       0.2186611939D-01 E2=     -0.4725121419D-01
     alpha-beta  T2 =       0.1658570323D+00 E2=     -0.3207821384D+00
     beta-beta   T2 =       0.2186611939D-01 E2=     -0.4725121419D-01
 ANorm=    0.1099813289D+01
 E2 =    -0.4152845668D+00 EUMP2 =    -0.19741195038802D+03
          IDoAtm=1111111111
          Differentiating once with respect to electric field.
                with respect to dipole field.
          Differentiating once with respect to nuclear coordinates.
          Keep R1 ints in memory in canonical form, NReq=3102463.
          There are     1 degrees of freedom in the 1st order CPHF.  IDoFFX=0.
 LinEq1:  Iter=  0 NonCon=     1 RMS=8.93D-03 Max=9.32D-02
 AX will form     1 AO Fock derivatives at one time.
 LinEq1:  Iter=  1 NonCon=     1 RMS=3.53D-03 Max=3.28D-02
 LinEq1:  Iter=  2 NonCon=     1 RMS=1.10D-03 Max=1.34D-02
 LinEq1:  Iter=  3 NonCon=     1 RMS=2.47D-04 Max=2.49D-03
 LinEq1:  Iter=  4 NonCon=     1 RMS=8.83D-05 Max=8.25D-04
 LinEq1:  Iter=  5 NonCon=     1 RMS=2.26D-05 Max=1.21D-04
 LinEq1:  Iter=  6 NonCon=     1 RMS=6.12D-06 Max=5.07D-05
 LinEq1:  Iter=  7 NonCon=     1 RMS=2.55D-06 Max=2.50D-05
 LinEq1:  Iter=  8 NonCon=     1 RMS=8.79D-07 Max=9.11D-06
 LinEq1:  Iter=  9 NonCon=     1 RMS=1.58D-07 Max=1.18D-06
 LinEq1:  Iter= 10 NonCon=     1 RMS=4.58D-08 Max=8.29D-07
 LinEq1:  Iter= 11 NonCon=     1 RMS=1.00D-08 Max=7.67D-08
 LinEq1:  Iter= 12 NonCon=     1 RMS=1.91D-09 Max=1.55D-08
 LinEq1:  Iter= 13 NonCon=     1 RMS=3.72D-10 Max=2.67D-09
 LinEq1:  Iter= 14 NonCon=     0 RMS=5.93D-11 Max=3.02D-10
 Linear equations converged to 1.000D-10 1.000D-09 after    14 iterations.
 End of Minotr Frequency-dependent properties file   721 does not exist.
 End of Minotr Frequency-dependent properties file   722 does not exist.
   1 Symmetry operations used in ECPInt.
 ECPInt:  NShTT=     780 NPrTT=    3579 LenC2=     766 LenP2D=    2843.
 LDataN:  DoStor=T MaxTD1= 6 Len=  172
 Calling FoFJK, ICntrl=      2127 FMM=F ISym2X=0 I1Cent= 0 IOpClX= 0 NMat=1 NMatS=1 NMatT=0.
 ***** Axes restored to original set *****
 -------------------------------------------------------------------
 Center     Atomic                   Forces (Hartrees/Bohr)
 Number     Number              X              Y              Z
 -------------------------------------------------------------------
      1        6           0.000549171   -0.000579243   -0.000097197
      2        6          -0.000247693    0.000487519    0.000028428
      3        1          -0.000012118   -0.000006590   -0.000136377
      4        1           0.000028780   -0.000068141    0.000099935
      5        1          -0.000045415   -0.000033063   -0.000089928
      6       50           0.000108797   -0.000052097    0.000067933
      7       50           0.000043388    0.000132797    0.000005553
      8       35          -0.000100374    0.000122292    0.000019274
      9        9          -0.000170782    0.000061756    0.000077515
     10        1          -0.000153755   -0.000065231    0.000024865
 -------------------------------------------------------------------
 Cartesian Forces:  Max     0.000579243 RMS     0.000193520

 GradGradGradGradGradGradGradGradGradGradGradGradGradGradGradGradGradGrad
 Berny optimization.
 Using GEDIIS/GDIIS optimizer.
 Internal  Forces:  Max     0.000452569 RMS     0.000153245
 Search for a local minimum.
 Step number   4 out of a maximum of   43
 All quantities printed in internal units (Hartrees-Bohrs-Radians)
 Mixed Optimization -- En-DIIS/RFO-DIIS
 Swaping is turned off.
 Update second derivatives using D2CorX and points    1    2    3    4
 DE= -3.88D-05 DEPred=-4.03D-05 R= 9.62D-01
 SS=  1.41D+00  RLast= 5.73D-02 DXNew= 8.4853D-01 1.7185D-01
 Trust test= 9.62D-01 RLast= 5.73D-02 DXMaxT set to 5.05D-01
     Eigenvalues ---    0.00228   0.00291   0.01682   0.02902   0.03175
     Eigenvalues ---    0.03226   0.04636   0.07011   0.10733   0.11932
     Eigenvalues ---    0.12040   0.12117   0.12408   0.14951   0.16044
     Eigenvalues ---    0.16201   0.16701   0.21476   0.22409   0.23488
     Eigenvalues ---    0.25391   0.36714   0.39058   0.653321000.00000
     Eigenvalues --- 1000.000001000.000001000.000001000.000001000.00000
     Eigenvalues --- 1000.000001000.000001000.00000
 En-DIIS/RFO-DIIS IScMMF=        0 using points:     4    3
 RFO step:  Lambda=-2.78340188D-06.
 DIIS coeffs:      0.96087      0.03913
 Iteration  1 RMS(Cart)=  0.02756408 RMS(Int)=  0.00041783
 Iteration  2 RMS(Cart)=  0.00041975 RMS(Int)=  0.00000067
 Iteration  3 RMS(Cart)=  0.00000008 RMS(Int)=  0.00000067
 Variable       Old X    -DE/DX   Delta X   Delta X   Delta X     New X
                                  (DIIS)     (GDIIS)  (Total)
    R1        2.56434  -0.00030   0.00001  -0.00038  -0.00037   2.56397
    R2        3.70200  -0.00005   0.00038  -0.00326  -0.00288   3.69913
    R3        2.70189   0.00016  -0.00044   0.00440   0.00396   2.70585
    R4        4.12428  -0.00011   0.00016  -0.00207  -0.00191   4.12238
    R5        2.07178  -0.00007   0.00000  -0.00002  -0.00001   2.07177
    R6        3.27824   0.00007   0.00017  -0.00073  -0.00056   3.27768
    R7        3.29091   0.00001   0.00011  -0.00073  -0.00062   3.29029
    R8        3.29166  -0.00005   0.00010  -0.00118  -0.00108   3.29057
    R9        5.18158  -0.00004   0.00013  -0.00222  -0.00209   5.17950
    A1        2.23816   0.00045  -0.00030   0.00419   0.00390   2.24205
    A2        2.12646  -0.00035   0.00016  -0.00281  -0.00266   2.12381
    A3        1.91855  -0.00010   0.00014  -0.00139  -0.00125   1.91730
    A4        2.17044   0.00021  -0.00009   0.00150   0.00142   2.17186
    A5        2.03614   0.00005   0.00025  -0.00178  -0.00153   2.03461
    A6        2.07562  -0.00027  -0.00017   0.00025   0.00008   2.07570
    A7        1.82659   0.00009  -0.00025   0.00242   0.00217   1.82876
    A8        1.96279  -0.00004   0.00007  -0.00100  -0.00093   1.96187
    A9        2.03387  -0.00011   0.00005  -0.00180  -0.00175   2.03213
   A10        1.82328  -0.00014  -0.00029   0.00159   0.00130   1.82458
   A11        1.92921   0.00002  -0.00014   0.00110   0.00095   1.93017
   A12        1.94306   0.00022  -0.00009   0.00198   0.00189   1.94494
    D1        3.11439  -0.00005  -0.00009  -0.00111  -0.00119   3.11320
    D2        0.02120  -0.00003  -0.00003  -0.00044  -0.00047   0.02073
    D3       -0.02213   0.00008   0.00008   0.00156   0.00164  -0.02049
    D4       -3.11532   0.00010   0.00014   0.00223   0.00237  -3.11296
    D5        0.47046   0.00009   0.00084   0.00552   0.00635   0.47682
    D6        2.69446  -0.00001   0.00077   0.00435   0.00512   2.69958
    D7       -2.72055   0.00007   0.00079   0.00478   0.00557  -2.71497
    D8       -0.49655  -0.00002   0.00072   0.00362   0.00434  -0.49221
    D9        3.03539  -0.00013  -0.00072  -0.04162  -0.04234   2.99305
   D10        1.01717  -0.00010  -0.00022  -0.04545  -0.04567   0.97150
   D11       -1.13902  -0.00013  -0.00097  -0.04055  -0.04151  -1.18053
   D12        3.12595  -0.00009  -0.00047  -0.04437  -0.04484   3.08111
         Item               Value     Threshold  Converged?
 Maximum Force            0.000453     0.000450     NO 
 RMS     Force            0.000153     0.000300     YES
 Maximum Displacement     0.092935     0.001800     NO 
 RMS     Displacement     0.027563     0.001200     NO 
 Predicted change in Energy=-1.273449D-05
 GradGradGradGradGradGradGradGradGradGradGradGradGradGradGradGradGradGrad

                          Input orientation:                          
 ---------------------------------------------------------------------
 Center     Atomic      Atomic             Coordinates (Angstroms)
 Number     Number       Type             X           Y           Z
 ---------------------------------------------------------------------
      1          6           0        2.309651    2.917734   -0.054663
      2          6           0        1.923432    1.625194    0.090464
      3          1           0       -1.074733    2.182530   -0.540492
      4          1           0       -2.113322   -2.167838   -0.145032
      5          1           0        0.549383   -2.709154    0.305595
      6         50           0       -0.148501    0.971293    0.286188
      7         50           0       -0.509864   -1.616688   -0.540944
      8         35           0        4.124474    3.637618   -0.195960
      9          9           0        1.356995    3.984906   -0.116733
     10          1           0        2.723604    0.878620    0.156055
 ---------------------------------------------------------------------
                    Distance matrix (angstroms):
                    1          2          3          4          5
     1  C    0.000000
     2  C    1.356793   0.000000
     3  H    3.497229   3.114117   0.000000
     4  H    6.740467   5.544180   4.490074   0.000000
     5  H    5.906793   4.552018   5.223236   2.754285   0.000000
     6  Sn   3.153938   2.181467   1.734475   3.728353   3.746079
     7  Sn   5.361635   4.102366   3.840982   1.741145   1.741297
     8  Br   1.957493   2.996076   5.409966   8.521502   7.301667
     9  F    1.431873   2.435574   3.056375   7.064004   6.755815
    10  H    2.091351   1.096335   4.075871   5.724283   4.197824
                    6          7          8          9         10
     6  Sn   0.000000
     7  Sn   2.740872   0.000000
     8  Br   5.059651   7.014545   0.000000
     9  F    3.392746   5.919711   2.790309   0.000000
    10  H    2.876545   4.143391   3.114229   3.404563   0.000000
 Stoichiometry    C2H4BrFSn2
 Framework group  C1[X(C2H4BrFSn2)]
 Deg. of freedom    24
 Full point group                 C1      NOp   1
 Largest Abelian subgroup         C1      NOp   1
 Largest concise Abelian subgroup C1      NOp   1
                         Standard orientation:                         
[...]
 Translational            0.889              2.981             43.551
 Rotational               0.889              2.981             32.864
 Vibrational             31.308             25.855             32.554
 Vibration     1          0.593              1.986              6.538
 Vibration     2          0.594              1.982              5.481
 Vibration     3          0.604              1.950              3.466
 Vibration     4          0.607              1.940              3.251
 Vibration     5          0.622              1.891              2.545
 Vibration     6          0.633              1.853              2.226
 Vibration     7          0.637              1.842              2.150
 Vibration     8          0.701              1.648              1.345
 Vibration     9          0.714              1.611              1.250
 Vibration    10          0.760              1.485              0.988
 Vibration    11          0.818              1.340              0.767
 Vibration    12          0.850              1.263              0.673
 Vibration    13          0.918              1.113              0.520
 Vibration    14          0.960              1.027              0.446
                       Q            Log10(Q)             Ln(Q)
 Total Bot       0.134535D+00         -0.871165         -2.005933
 Total V=0       0.554681D+19         18.744043         43.159754
 Vib (Bot)       0.146525D-15        -15.834089        -36.459337
 Vib (Bot)    1  0.986603D+01          0.994143          2.289098
 Vib (Bot)    2  0.578590D+01          0.762371          1.755423
 Vib (Bot)    3  0.206487D+01          0.314893          0.725067
 Vib (Bot)    4  0.184442D+01          0.265860          0.612165
 Vib (Bot)    5  0.126036D+01          0.100496          0.231401
 Vib (Bot)    6  0.105238D+01          0.022171          0.051050
 Vib (Bot)    7  0.100692D+01          0.002994          0.006894
 Vib (Bot)    8  0.602259D+00         -0.220217         -0.507068
 Vib (Bot)    9  0.561966D+00         -0.250290         -0.576314
 Vib (Bot)   10  0.455405D+00         -0.341603         -0.786569
 Vib (Bot)   11  0.370177D+00         -0.431591         -0.993774
 Vib (Bot)   12  0.334479D+00         -0.475631         -1.095181
 Vib (Bot)   13  0.275931D+00         -0.559199         -1.287604
 Vib (Bot)   14  0.247461D+00         -0.606494         -1.396504
 Vib (V=0)       0.604115D+04          3.781120          8.706350
 Vib (V=0)    1  0.103787D+02          1.016143          2.339755
 Vib (V=0)    2  0.630746D+01          0.799855          1.841733
 Vib (V=0)    3  0.262454D+01          0.419054          0.964907
 Vib (V=0)    4  0.241099D+01          0.382196          0.880038
 Vib (V=0)    5  0.185592D+01          0.268559          0.618381
 Vib (V=0)    6  0.166512D+01          0.221444          0.509894
 Vib (V=0)    7  0.162423D+01          0.210646          0.485031
 Vib (V=0)    8  0.128276D+01          0.108146          0.249015
 Vib (V=0)    9  0.125220D+01          0.097674          0.224903
 Vib (V=0)   10  0.117631D+01          0.070521          0.162381
 Vib (V=0)   11  0.112212D+01          0.050039          0.115218
 Vib (V=0)   12  0.110156D+01          0.042009          0.096729
 Vib (V=0)   13  0.107108D+01          0.029824          0.068672
 Vib (V=0)   14  0.105789D+01          0.024439          0.056273
 Electronic      0.100000D+01          0.000000          0.000000
 Translational   0.270440D+09          8.432071         19.415561
 Rotational      0.339510D+07          6.530852         15.037844
 ***** Axes restored to original set *****
 -------------------------------------------------------------------
 Center     Atomic                   Forces (Hartrees/Bohr)
 Number     Number              X              Y              Z
 -------------------------------------------------------------------
      1        6          -0.000006135    0.000006757    0.000001965
      2        6          -0.000015091   -0.000012560    0.000002282
      3        1           0.000004822    0.000001038    0.000002595
      4        1           0.000003226   -0.000000202   -0.000002178
      5        1           0.000000680    0.000004768    0.000000267
      6       50           0.000001332   -0.000001200   -0.000004121
      7       50          -0.000004092    0.000000500    0.000003443
      8       35          -0.000001083    0.000000487   -0.000000525
      9        9           0.000009145   -0.000007038   -0.000001199
     10        1           0.000007196    0.000007451   -0.000002529
 -------------------------------------------------------------------
 Cartesian Forces:  Max     0.000015091 RMS     0.000005312

 GradGradGradGradGradGradGradGradGradGradGradGradGradGradGradGradGradGrad
 Berny optimization.
 Internal  Forces:  Max     0.000012134 RMS     0.000005036
 Search for a local minimum.
 Step number   1 out of a maximum of    2
 All quantities printed in internal units (Hartrees-Bohrs-Radians)
 Second derivative matrix not updated -- analytic derivatives used.
     Eigenvalues ---    0.00103   0.00611   0.01275   0.01686   0.02274
     Eigenvalues ---    0.03241   0.04289   0.05215   0.06631   0.07564
     Eigenvalues ---    0.07634   0.08919   0.10381   0.11312   0.12364
     Eigenvalues ---    0.12904   0.12950   0.13176   0.15281   0.16429
     Eigenvalues ---    0.24310   0.31124   0.35987   0.567821000.00000
     Eigenvalues --- 1000.000001000.000001000.000001000.000001000.00000
     Eigenvalues --- 1000.000001000.000001000.00000
 Angle between quadratic step and forces=  50.55 degrees.
 Linear search not attempted -- first point.
 Iteration  1 RMS(Cart)=  0.00036612 RMS(Int)=  0.00000006
 Iteration  2 RMS(Cart)=  0.00000005 RMS(Int)=  0.00000001
 Variable       Old X    -DE/DX   Delta X   Delta X   Delta X     New X
                                 (Linear)    (Quad)   (Total)
    R1        2.56332   0.00000   0.00000   0.00001   0.00001   2.56334
    R2        3.70048   0.00000   0.00000   0.00001   0.00001   3.70049
    R3        2.70412  -0.00001   0.00000  -0.00004  -0.00004   2.70408
    R4        4.12408  -0.00001   0.00000  -0.00006  -0.00006   4.12402
    R5        2.07170   0.00000   0.00000   0.00000   0.00000   2.07170
    R6        3.27883   0.00000   0.00000  -0.00004  -0.00004   3.27879
    R7        3.29069   0.00000   0.00000  -0.00004  -0.00004   3.29064
    R8        3.29146   0.00000   0.00000  -0.00001  -0.00001   3.29145
    R9        5.18128  -0.00001   0.00000  -0.00008  -0.00008   5.18120
    A1        2.24245   0.00000   0.00000  -0.00002  -0.00002   2.24244
    A2        2.12285   0.00000   0.00000   0.00003   0.00003   2.12289
    A3        1.91786   0.00000   0.00000  -0.00001  -0.00001   1.91784
    A4        2.17039   0.00000   0.00000  -0.00003  -0.00003   2.17036
    A5        2.03805  -0.00001   0.00000  -0.00011  -0.00011   2.03794
    A6        2.07370   0.00001   0.00000   0.00014   0.00014   2.07384
    A7        1.82777  -0.00001   0.00000  -0.00009  -0.00009   1.82768
    A8        1.95801   0.00000   0.00000  -0.00015  -0.00015   1.95786
    A9        2.03127   0.00001   0.00000   0.00030   0.00030   2.03158
   A10        1.82142   0.00000   0.00000   0.00005   0.00005   1.82147
   A11        1.93301   0.00001   0.00000   0.00020   0.00020   1.93321
   A12        1.94587  -0.00001   0.00000  -0.00031  -0.00031   1.94556
    D1        3.11224   0.00000   0.00000   0.00006   0.00006   3.11230
    D2        0.02067   0.00000   0.00000   0.00000   0.00000   0.02067
    D3       -0.02149   0.00000   0.00000   0.00002   0.00002  -0.02147
    D4       -3.11306   0.00000   0.00000  -0.00004  -0.00004  -3.11311
    D5        0.50153   0.00000   0.00000  -0.00014  -0.00014   0.50138
    D6        2.72003   0.00000   0.00000   0.00008   0.00008   2.72011
    D7       -2.69104   0.00000   0.00000  -0.00008  -0.00008  -2.69112
    D8       -0.47254   0.00000   0.00000   0.00014   0.00014  -0.47240
    D9        3.02475   0.00000   0.00000  -0.00023  -0.00023   3.02452
   D10        1.00479   0.00000   0.00000  -0.00023  -0.00023   1.00455
   D11       -1.15399   0.00000   0.00000  -0.00024  -0.00024  -1.15423
   D12        3.10922   0.00000   0.00000  -0.00024  -0.00024   3.10899
         Item               Value     Threshold  Converged?
 Maximum Force            0.000012     0.000450     YES
 RMS     Force            0.000005     0.000300     YES
 Maximum Displacement     0.001182     0.001800     YES
 RMS     Displacement     0.000366     0.001200     YES
 Predicted change in Energy=-7.081447D-09
 Optimization completed.
    -- Stationary point found.
                           ----------------------------
                           !   Optimized Parameters   !
                           ! (Angstroms and Degrees)  !
 --------------------------                            --------------------------
 ! Name  Definition              Value          Derivative Info.                !
 --------------------------------------------------------------------------------
 ! R1    R(1,2)                  1.3565         -DE/DX =    0.0                 !
 ! R2    R(1,8)                  1.9582         -DE/DX =    0.0                 !
 ! R3    R(1,9)                  1.431          -DE/DX =    0.0                 !
 ! R4    R(2,6)                  2.1824         -DE/DX =    0.0                 !
 ! R5    R(2,10)                 1.0963         -DE/DX =    0.0                 !
 ! R6    R(3,6)                  1.7351         -DE/DX =    0.0                 !
 ! R7    R(4,7)                  1.7414         -DE/DX =    0.0                 !
 ! R8    R(5,7)                  1.7418         -DE/DX =    0.0                 !
 ! R9    R(6,7)                  2.7418         -DE/DX =    0.0                 !
 ! A1    A(2,1,8)              128.4832         -DE/DX =    0.0                 !
 ! A2    A(2,1,9)              121.6306         -DE/DX =    0.0                 !
 ! A3    A(8,1,9)              109.885          -DE/DX =    0.0                 !
 ! A4    A(1,2,6)              124.354          -DE/DX =    0.0                 !
 ! A5    A(1,2,10)             116.7714         -DE/DX =    0.0                 !
 ! A6    A(6,2,10)             118.8142         -DE/DX =    0.0                 !
 ! A7    A(2,6,3)              104.7233         -DE/DX =    0.0                 !
 ! A8    A(2,6,7)              112.1858         -DE/DX =    0.0                 !
 ! A9    A(3,6,7)              116.3832         -DE/DX =    0.0                 !
 ! A10   A(4,7,5)              104.3596         -DE/DX =    0.0                 !
 ! A11   A(4,7,6)              110.7533         -DE/DX =    0.0                 !
 ! A12   A(5,7,6)              111.49           -DE/DX =    0.0                 !
 ! D1    D(8,1,2,6)            178.3183         -DE/DX =    0.0                 !
 ! D2    D(8,1,2,10)             1.1845         -DE/DX =    0.0                 !
 ! D3    D(9,1,2,6)             -1.2315         -DE/DX =    0.0                 !
 ! D4    D(9,1,2,10)          -178.3653         -DE/DX =    0.0                 !
 ! D5    D(1,2,6,3)             28.7354         -DE/DX =    0.0                 !
 ! D6    D(1,2,6,7)            155.8462         -DE/DX =    0.0                 !
 ! D7    D(10,2,6,3)          -154.1852         -DE/DX =    0.0                 !
 ! D8    D(10,2,6,7)           -27.0743         -DE/DX =    0.0                 !
 ! D9    D(2,6,7,4)            173.3056         -DE/DX =    0.0                 !
 ! D10   D(2,6,7,5)             57.5699         -DE/DX =    0.0                 !
 ! D11   D(3,6,7,4)            -66.119          -DE/DX =    0.0                 !
 ! D12   D(3,6,7,5)            178.1453         -DE/DX =    0.0                 !
 --------------------------------------------------------------------------------
 GradGradGradGradGradGradGradGradGradGradGradGradGradGradGradGradGradGrad

 1\1\GINC-MALLOS72\Freq\RMP2-FC\SDD\C2H4Br1F1Sn2\MARLIN\25-Oct-2024\0\\
 #N Geom=AllCheck Guess=TCheck SCRF=Check GenChk RMP2(FC)/SDD Freq\\Tit
 le Card Required\\0,1\C,2.3105368178,2.9212220347,-0.0512068101\C,1.92
 65586401,1.6265777121,0.0769360186\H,-1.0752091639,2.1772592723,-0.542
 8466789\H,-2.1137480345,-2.1656220092,-0.1754310371\H,0.5311009435,-2.
 715151658,0.3473374372\Sn,-0.1444244097,0.9713639413,0.2877967604\Sn,-
 0.4989574006,-1.6206230809,-0.5328508974\Br,4.1237115433,3.6452680034,
 -0.2019845522\F,1.3564691228,3.9872006489,-0.0842292101\H,2.7250821813
 ,0.8767178654,0.1209561897\\Version=EM64L-G09RevA.01\State=1-A\HF=-196
 .9966852\MP2=-197.4119587\RMSD=9.975e-10\RMSF=5.312e-06\ZeroPoint=0.04
 26448\Thermal=0.0527243\Dipole=-0.0284093,-0.8508893,0.0409986\DipoleD
 eriv=1.4242159,0.2495139,-0.0180889,0.5217231,1.6046306,0.0008803,-0.1
 136818,-0.1518458,0.0682548,-0.8104274,-0.5897405,-0.0151287,-0.525086
 5,-0.9770239,0.0383718,0.1817839,0.3435394,-0.275255,-0.3009976,-0.040
 5856,-0.0211053,0.0872097,-0.2961555,0.0872218,-0.044065,0.3251772,-0.
 0672556,-0.4041353,-0.1891336,-0.0323556,-0.1502232,-0.282758,0.063957
 9,0.1393924,0.3061208,-0.0604227,-0.2453475,0.0445208,-0.0223752,0.066
 9719,-0.3654736,0.1134985,-0.0152536,0.4055255,-0.0944418,1.0932662,0.
 5637846,0.0719179,0.1440881,0.7866084,-0.1233606,-0.1163741,-0.6205542
 ,0.2646218,0.5891924,0.1080526,0.0527179,0.0548065,0.6208473,-0.180745
 6,-0.1325339,-0.7147568,0.1477095,-0.6186413,-0.4099506,0.0049377,-0.3
 083603,-0.3012925,0.0044286,0.0263372,0.0045846,0.0305855,-0.6547631,0
 .2669589,0.0061305,0.0538782,-0.8506389,0.0080511,0.0455387,0.0703363,
 -0.1666396,-0.0723624,-0.0034206,-0.0266503,0.0549924,0.061256,-0.0123
 037,0.0288563,0.0318731,0.152843\Polar=130.422925,47.9901893,185.34199
 68,7.6475784,31.5026963,61.4632365\PG=C01 [X(C2H4Br1F1Sn2)]\NImag=0\\0
 .33484472,0.06851273,0.66451163,-0.01991638,-0.05217649,0.08761696,-0.
 10479905,-0.09533716,0.01082847,0.41993245,-0.11471844,-0.45002387,0.0
 4073993,-0.02831024,0.71026009,0.01430384,0.03997370,-0.03664268,-0.01
 285258,-0.06077818,0.06994371,0.00138469,0.00282250,-0.00006846,-0.004
 62114,0.00682879,-0.00439121,0.04646860,0.00240909,-0.00171719,-0.0000
 7959,-0.00156481,0.00379502,-0.00103487,-0.04372323,0.07011073,-0.0009
 5580,-0.00061648,-0.00029858,0.00239534,0.00020868,0.00066775,0.030795
 96,-0.04089112,0.03288245,0.00031156,0.00066018,-0.00012292,0.00001141
 ,-0.00031893,-0.00036199,0.00011783,-0.00024729,-0.00004249,0.11273369
 ,-0.00026826,0.00064263,-0.00004539,0.00045919,-0.00251825,-0.00190757
 ,0.00041349,-0.00056892,-0.00111022,0.03384785,0.02283960,-0.00088627,
 -0.00049652,0.00028072,0.00031739,-0.00141233,0.00116006,0.00013267,-0
 .00109916,-0.00096045,-0.02006361,-0.00928286,0.01081315,0.00010647,-0
 .00009296,0.00003595,0.00017690,0.00055055,0.00005426,0.00023469,-0.00
 022152,-0.00076841,-0.00559824,0.00627576,-0.00555613,0.05396727,0.000
 48992,0.00020177,0.00002190,-0.00021143,-0.00040150,-0.00122086,-0.000
 22080,-0.00175245,-0.00208567,-0.00221527,0.00272015,-0.00083768,-0.04
 334108,0.05736234,-0.00038294,-0.00114465,0.00021833,0.00045748,0.0000
 1427,-0.00118029,-0.00069609,-0.00192798,0.00076578,0.00247815,-0.0007
 9163,0.00057299,0.03509960,-0.03838189,0.03498281,-0.01162753,-0.01113
 242,0.00223750,-0.09548527,-0.02378135,0.01306138,-0.04116862,0.044306
 56,-0.03359117,-0.00060640,-0.00511276,-0.00216026,0.00009518,0.003406
 58,0.00041842,0.16274700,-0.02167813,-0.00175308,0.00188835,-0.0237521
 8,-0.03554647,0.00963314,0.03793915,-0.07217027,0.04718108,0.00216786,
 0.00320663,-0.00171880,-0.00062681,0.00140972,-0.00316757,0.00098534,0
 .17927936,0.00411264,0.00285428,0.00342648,0.00372261,0.00204451,-0.01
 569414,-0.02620697,0.03682613,-0.03513474,0.00197196,0.00603583,-0.000
 02629,0.00084917,0.00825704,0.00091049,0.02305215,-0.03397936,0.059283
 22,-0.00179486,0.00087403,-0.00016148,0.00008374,-0.00609298,-0.001938
 30,0.00044183,0.00274615,0.00096216,-0.10689417,-0.03540177,0.02812034
 ,-0.04916034,0.04271988,-0.03796852,-0.00956275,-0.00809961,-0.0036412
 6,0.16670301,0.00039848,-0.00069131,-0.00019687,0.00090552,0.00297281,
 -0.00098544,-0.00047914,0.00239244,-0.00259589,-0.03363575,-0.02589072
 ,0.01477702,0.03729484,-0.05925802,0.04478648,-0.00917171,-0.07618308,
 -0.01983587,0.00383464,0.15541713,0.00138242,0.00183981,-0.00062307,0.
 00007746,0.00385181,0.00103605,0.00052433,0.00794990,0.00144380,0.0159
 8613,0.00688066,-0.01147515,-0.02962692,0.03415918,-0.03607918,-0.0023
 9071,-0.01820844,-0.01310553,0.01433410,-0.03611723,0.05808452,-0.0960
 9550,-0.04606831,0.00861815,-0.01776088,-0.00293071,0.00165381,-0.0005
 7682,-0.00017161,0.00026435,-0.00017770,-0.00033203,0.00006098,0.00007
 669,-0.00023931,0.00042973,0.00424859,0.00058268,-0.00128310,-0.000338
 34,0.00087787,-0.00020492,0.14660019,-0.03672356,-0.04043768,0.0043194
 6,-0.02496191,-0.00665415,0.00263282,-0.00047397,0.00010636,0.00011215
 ,-0.00009056,-0.00029572,-0.00014984,0.00007340,-0.00013146,0.00023337
 ,0.00237804,-0.00096632,-0.00069200,-0.00043819,0.00084851,0.00023652,
 0.04738009,0.04417990,0.00710899,0.00444434,-0.01814512,0.00346868,0.0
 0172598,0.00713277,0.00052410,0.00013278,-0.00013183,0.00005164,0.0002
 9972,-0.00010838,-0.00000719,0.00015388,0.00010308,-0.00104443,-0.0004
 5989,0.00278774,0.00031950,-0.00003805,-0.00017714,-0.01135556,-0.0056
 6812,0.00774729,-0.12270840,0.09803144,-0.00277048,0.00415257,0.000165
 80,-0.00068697,-0.00005632,-0.00261973,0.00035400,0.00003359,-0.000024
 21,-0.00002826,0.00001696,-0.00033356,-0.00016665,-0.00264022,0.003610
 09,-0.00122253,0.00050446,0.00023989,0.00065496,-0.03614106,0.01406148
 ,0.00094304,0.15450424,0.07430485,-0.15137282,0.00541819,0.03521953,-0
 .04115727,0.00270345,-0.00130815,0.00016167,-0.00033517,-0.00025303,-0
 .00034061,0.00007414,-0.00004852,-0.00014846,0.00020353,0.00521604,-0.
 00104885,-0.00115990,-0.00018828,0.00062702,-0.00004351,0.00113695,0.0
 0247863,-0.00020620,-0.11138471,0.19451422,-0.00156639,0.00468741,-0.0
 3088916,-0.00256404,0.00304818,0.00091220,-0.00040104,-0.00014779,0.00
 037542,-0.00000089,-0.00015579,-0.00002249,-0.00000936,-0.00011288,-0.
 00017418,-0.00027333,-0.00020832,-0.00308471,-0.00008254,0.00001987,0.
 00043148,0.00185850,-0.00079424,0.00342183,0.00248189,-0.00791040,0.01
 742360,0.00037791,-0.01827003,0.00131965,-0.20169073,0.16860750,-0.008
 84224,-0.00222475,-0.00091361,0.00058605,0.00006842,0.00014275,0.00006
 315,0.00008442,-0.00005493,0.00033083,-0.00599997,0.00887162,-0.001354
 66,0.00001742,-0.00026463,-0.00073685,0.00016483,-0.00120482,-0.000008
 77,0.00233416,-0.00269469,0.00055719,0.20686829,0.02727332,-0.01936007
 ,0.00011051,0.13755351,-0.18072642,0.01098381,-0.00179864,-0.00035739,
 0.00013265,0.00008492,0.00020520,0.00014604,0.00013635,-0.00000210,0.0
 0017608,-0.00709432,0.00377237,-0.00035065,0.00004613,-0.00023478,-0.0
 0054871,-0.00023561,0.00087192,-0.00038443,-0.00174649,-0.00371352,0.0
 0157395,-0.15421917,0.19954481,-0.00320010,0.00063460,-0.00494390,-0.0
 0585081,0.01055715,-0.02733543,-0.00021329,0.00027170,0.00039040,0.000
 10401,0.00007724,-0.00023415,-0.00007097,0.00004698,-0.00011984,0.0006
 9045,-0.00096018,0.00063747,0.00005599,0.00018598,0.00046422,-0.000041
 93,-0.00023012,-0.00263024,0.00044100,0.00125588,0.01160600,0.00808564
 ,-0.01183924,0.02216546\\0.00000614,-0.00000676,-0.00000196,0.00001509
 ,0.00001256,-0.00000228,-0.00000482,-0.00000104,-0.00000260,-0.0000032
 3,0.00000020,0.00000218,-0.00000068,-0.00000477,-0.00000027,-0.0000013
 3,0.00000120,0.00000412,0.00000409,-0.00000050,-0.00000344,0.00000108,
 -0.00000049,0.00000052,-0.00000915,0.00000704,0.00000120,-0.00000720,-
 0.00000745,0.00000253\\\@


 Happiness is a conscious choice, not an automatic response.
 -- Mildred Barthel
 Job cpu time:  0 days  0 hours  4 minutes 38.2 seconds.
 File lengths (MBytes):  RWF=    197 Int=      0 D2E=      0 Chk=      2 Scr=      1
 Normal termination of Gaussian 09 at Fri Oct 25 10:52:55 2024.
