 Entering Gaussian System, Link 0=g09
 Initial command:
 /u/local/G09/g09/l1.exe /tmp/marlin/22661.mallos00.local/Gau-6201.inp -scrdir=/tmp/marlin/22661.mallos00.local/
 Entering Link 1 = /u/local/G09/g09/l1.exe PID=      6203.
  
 Copyright (c) 1988,1990,1992,1993,1995,1998,2003,2009, Gaussian, Inc.
                  All Rights Reserved.
  
 This is part of the Gaussian(R) 09 program.  It is based on
 the Gaussian(R) 03 system (copyright 2003, Gaussian, Inc.),
 the Gaussian(R) 98 system (copyright 1998, Gaussian, Inc.),
 the Gaussian(R) 94 system (copyright 1995, Gaussian, Inc.),
 the Gaussian 92(TM) system (copyright 1992, Gaussian, Inc.),
 the Gaussian 90(TM) system (copyright 1990, Gaussian, Inc.),
 the Gaussian 88(TM) system (copyright 1988, Gaussian, Inc.),
 the Gaussian 86(TM) system (copyright 1986, Carnegie Mellon
 University), and the Gaussian 82(TM) system (copyright 1983,
 Carnegie Mellon University). Gaussian is a federally registered
 trademark of Gaussian, Inc.
  
 This software contains proprietary and confidential information,
 including trade secrets, belonging to Gaussian, Inc.
  
 This software is provided under written license and may be
 used, copied, transmitted, or stored only in accord with that
 written license.
  
 The following legend is applicable only to US Government
 contracts under FAR:
  
                    RESTRICTED RIGHTS LEGEND
  
 Use, reproduction and disclosure by the US Government is
 subject to restrictions as set forth in subparagraphs (a)
 and (c) of the Commercial Computer Software - Restricted
 Rights clause in FAR 52.227-19.
  
 Gaussian, Inc.
 340 Quinnipiac St., Bldg. 40, Wallingford CT 06492
  
  
 ---------------------------------------------------------------
 Warning -- This program may not be used in any manner that
 competes with the business of Gaussian, Inc. or will provide
 assistance to any competitor of Gaussian, Inc.  The licensee
 of this program is prohibited from giving any competitor of
 Gaussian, Inc. access to this program.  By using this program,
 the user acknowledges that Gaussian, Inc. is engaged in the
 business of creating and licensing software in the field of
 computational chemistry and represents and warrants to the
 licensee that it is not a competitor of Gaussian, Inc. and that
 it will not use this program in any manner prohibited above.
 ---------------------------------------------------------------
  

 Cite this work as:
 Gaussian 09, Revision A.01,
 M. J. Frisch, G. W. Trucks, H. B. Schlegel, G. E. Scuseria, 
 M. A. Robb, J. R. Cheeseman, G. Scalmani, V. Barone, B. Mennucci, 
 G. A. Petersson, H. Nakatsuji, M. Caricato, X. Li, H. P. Hratchian, 
 A. F. Izmaylov, J. Bloino, G. Zheng, J. L. Sonnenberg, M. Hada, 
 M. Ehara, K. Toyota, R. Fukuda, J. Hasegawa, M. Ishida, T. Nakajima, 
 Y. Honda, O. Kitao, H. Nakai, T. Vreven, J. A. Montgomery, Jr., 
 J. E. Peralta, F. Ogliaro, M. Bearpark, J. J. Heyd, E. Brothers, 
 K. N. Kudin, V. N. Staroverov, R. Kobayashi, J. Normand, 
 K. Raghavachari, A. Rendell, J. C. Burant, S. S. Iyengar, J. Tomasi, 
 M. Cossi, N. Rega, J. M. Millam, M. Klene, J. E. Knox, J. B. Cross, 
 V. Bakken, C. Adamo, J. Jaramillo, R. Gomperts, R. E. Stratmann, 
 O. Yazyev, A. J. Austin, R. Cammi, C. Pomelli, J. W. Ochterski, 
 R. L. Martin, K. Morokuma, V. G. Zakrzewski, G. A. Voth, 
 P. Salvador, J. J. Dannenberg, S. Dapprich, A. D. Daniels, 
 O. Farkas, J. B. Foresman, J. V. Ortiz, J. Cioslowski, 
 and D. J. Fox, Gaussian, Inc., Wallingford CT, 2009.
 
 ******************************************
 Gaussian 09:  EM64L-G09RevA.01  8-May-2009
                24-Oct-2024 
 ******************************************
 %mem=412GB
 %nproc=24
 Will use up to   24 processors via shared memory.
 %chk=5-lanl2dz.chk
 -----------------------------------------------
 # opt freq=noraman hf/lanl2dz geom=connectivity
 -----------------------------------------------
 1/18=20,19=15,38=1,57=2/1,3;
 2/9=110,12=2,17=6,18=5,40=1/2;
 3/5=6,6=3,11=9,16=1,25=1,30=1,71=1/1,2,3;
 4//1;
 5/5=2,38=5/2;
 6/7=2,8=2,9=2,10=2,28=1/1;
 7//1,2,3,16;
 1/18=20,19=15/3(2);
 2/9=110/2;
 99//99;
 2/9=110/2;
 3/5=6,6=3,11=9,16=1,25=1,30=1,71=1/1,2,3;
 4/5=5,16=3/1;
 5/5=2,38=5/2;
 7//1,2,3,16;
 1/18=20,19=15/3(-5);
 2/9=110/2;
 6/7=2,8=2,9=2,10=2,19=2,28=1/1;
 99/9=1/99;
 -------------------
 Title Card Required
 -------------------
 Symbolic Z-matrix:
 Charge =  0 Multiplicity = 1
 C                     2.25546   2.98342   0. 
 C                     1.95702   1.67669   0. 
 H                    -1.06638   2.08959  -0.59173 
 H                    -2.2088   -2.08731   0. 
 H                     0.57987  -2.78595   0. 
 Sn                    0.        0.91451   0. 
 Sn                   -0.60005  -1.57956   0. 
 F                     1.31494   3.95188   0. 
 H                     3.26949   3.32494   0. 
 Br                    3.38842   0.41209   0. 
 

 GradGradGradGradGradGradGradGradGradGradGradGradGradGradGradGradGradGrad
 Berny optimization.
 Initialization pass.
                           ----------------------------
                           !    Initial Parameters    !
                           ! (Angstroms and Degrees)  !
 --------------------------                            --------------------------
 ! Name  Definition              Value          Derivative Info.                !
 --------------------------------------------------------------------------------
 ! R1    R(1,2)                  1.3404         estimate D2E/DX2                !
 ! R2    R(1,8)                  1.35           estimate D2E/DX2                !
 ! R3    R(1,9)                  1.07           estimate D2E/DX2                !
 ! R4    R(2,6)                  2.1002         estimate D2E/DX2                !
 ! R5    R(2,10)                 1.91           estimate D2E/DX2                !
 ! R6    R(3,6)                  1.6935         estimate D2E/DX2                !
 ! R7    R(4,7)                  1.687          estimate D2E/DX2                !
 ! R8    R(5,7)                  1.6875         estimate D2E/DX2                !
 ! R9    R(6,7)                  2.5652         estimate D2E/DX2                !
 ! A1    A(2,1,8)              122.9738         estimate D2E/DX2                !
 ! A2    A(2,1,9)              121.4784         estimate D2E/DX2                !
 ! A3    A(8,1,9)              115.5478         estimate D2E/DX2                !
 ! A4    A(1,2,6)              124.1436         estimate D2E/DX2                !
 ! A5    A(1,2,10)             118.5949         estimate D2E/DX2                !
 ! A6    A(6,2,10)             117.2615         estimate D2E/DX2                !
 ! A7    A(2,6,3)              109.5689         estimate D2E/DX2                !
 ! A8    A(2,6,7)              124.8064         estimate D2E/DX2                !
 ! A9    A(3,6,7)              121.8242         estimate D2E/DX2                !
 ! A10   A(4,7,5)              116.8478         estimate D2E/DX2                !
 ! A11   A(4,7,6)              121.0443         estimate D2E/DX2                !
 ! A12   A(5,7,6)              122.1079         estimate D2E/DX2                !
 ! D1    D(8,1,2,6)              0.0            estimate D2E/DX2                !
 ! D2    D(8,1,2,10)           180.0            estimate D2E/DX2                !
 ! D3    D(9,1,2,6)            180.0            estimate D2E/DX2                !
 ! D4    D(9,1,2,10)             0.0            estimate D2E/DX2                !
 ! D5    D(1,2,6,3)             21.7662         estimate D2E/DX2                !
 ! D6    D(1,2,6,7)            180.0            estimate D2E/DX2                !
 ! D7    D(10,2,6,3)          -158.2338         estimate D2E/DX2                !
 ! D8    D(10,2,6,7)             0.0            estimate D2E/DX2                !
 ! D9    D(2,6,7,4)            180.0            estimate D2E/DX2                !
 ! D10   D(2,6,7,5)              0.0            estimate D2E/DX2                !
 ! D11   D(3,6,7,4)            -24.2815         estimate D2E/DX2                !
 ! D12   D(3,6,7,5)            155.7185         estimate D2E/DX2                !
 --------------------------------------------------------------------------------
 Trust Radius=3.00D-01 FncErr=1.00D-07 GrdErr=1.00D-07
 Number of steps in this run=  43 maximum allowed number of steps= 100.
 GradGradGradGradGradGradGradGradGradGradGradGradGradGradGradGradGradGrad

                          Input orientation:                          
 ---------------------------------------------------------------------
 Center     Atomic      Atomic             Coordinates (Angstroms)
 Number     Number       Type             X           Y           Z
 ---------------------------------------------------------------------
      1          6           0        2.255461    2.983417    0.000000
      2          6           0        1.957023    1.676688    0.000000
      3          1           0       -1.066376    2.089588   -0.591727
      4          1           0       -2.208804   -2.087312    0.000000
      5          1           0        0.579873   -2.785954    0.000000
      6         50           0        0.000000    0.914514    0.000000
      7         50           0       -0.600048   -1.579560    0.000000
      8          9           0        1.314941    3.951881    0.000000
      9          1           0        3.269493    3.324942    0.000000
     10         35           0        3.388416    0.412087    0.000000
 ---------------------------------------------------------------------
                    Distance matrix (angstroms):
                    1          2          3          4          5
     1  C    0.000000
     2  C    1.340375   0.000000
     3  H    3.490512   3.108306   0.000000
     4  H    6.755883   5.614429   4.370558   0.000000
     5  H    6.007765   4.670301   5.179883   2.874860   0.000000
     6  Sn   3.060631   2.100202   1.693546   3.726899   3.745626
     7  Sn   5.382814   4.140261   3.745697   1.686982   1.687483
     8  F    1.350000   2.364059   3.080414   6.992041   6.777813
     9  H    1.070000   2.106969   4.547087   7.700924   6.676609
    10  Br   2.809862   1.910000   4.796803   6.129916   4.256217
                    6          7          8          9         10
     6  Sn   0.000000
     7  Sn   2.565241   0.000000
     8  F    3.309784   5.853548   0.000000
     9  H    4.061988   6.247199   2.052638   0.000000
    10  Br   3.425463   4.458083   4.102370   2.915282   0.000000
 Stoichiometry    C2H4BrFSn2
 Framework group  C1[X(C2H4BrFSn2)]
 Deg. of freedom    24
 Full point group                 C1      NOp   1
 Largest Abelian subgroup         C1      NOp   1
 Largest concise Abelian subgroup C1      NOp   1
                         Standard orientation:                         
 ---------------------------------------------------------------------
 Center     Atomic      Atomic             Coordinates (Angstroms)
 Number     Number       Type             X           Y           Z
 ---------------------------------------------------------------------
      1          6           0        2.936252   -0.906540   -0.009741
      2          6           0        1.809473   -0.180626   -0.004822
      3          1           0       -0.064194   -2.593153    0.570205
      4          1           0       -3.800650   -0.400472   -0.006701
      5          1           0       -2.294608    2.048277    0.010238
      6         50           0       -0.122847   -1.003400   -0.010607
      7         50           0       -2.295229    0.360833   -0.001367
      8          9           0        2.940540   -2.256502   -0.019024
      9          1           0        3.900162   -0.442034   -0.006483
     10         35           0        1.949253    1.724207    0.008286
 ---------------------------------------------------------------------
 Rotational constants (GHZ):      1.0376536      0.3996837      0.2886571
 Standard basis: LANL2DZ (5D, 7F)
 There are    59 symmetry adapted basis functions of A   symmetry.
 Integral buffers will be    131072 words long.
 Raffenetti 1 integral format.
 Two-electron integral symmetry is turned on.
    59 basis functions,   127 primitive gaussians,    59 cartesian basis functions
    20 alpha electrons       20 beta electrons
       nuclear repulsion energy       135.1292137470 Hartrees.
 NAtoms=   10 NActive=   10 NUniq=   10 SFac= 7.50D-01 NAtFMM=   80 NAOKFM=F Big=F
 One-electron integrals computed using PRISM.
   1 Symmetry operations used in ECPInt.
 ECPInt:  NShTT=     630 NPrTT=    3262 LenC2=     622 LenP2D=    2682.
 LDataN:  DoStor=T MaxTD1= 4 Len=   56
 NBasis=    59 RedAO= T  NBF=    59
 NBsUse=    59 1.00D-06 NBFU=    59
 Harris functional with IExCor=  205 diagonalized for initial guess.
 ExpMin= 6.30D-02 ExpMax= 1.00D+04 ExpMxC= 3.50D+02 IAcc=2 IRadAn=         0 AccDes= 0.00D+00
 HarFok:  IExCor=  205 AccDes= 0.00D+00 IRadAn=         0 IDoV= 1
 ScaDFX=  1.000000  1.000000  1.000000  1.000000
 Defaulting to unpruned grid for atomic number  50.
 Defaulting to unpruned grid for atomic number  50.
 Defaulting to unpruned grid for atomic number  50.
 Defaulting to unpruned grid for atomic number  50.
 Defaulting to unpruned grid for atomic number  50.
 Defaulting to unpruned grid for atomic number  50.
 Defaulting to unpruned grid for atomic number  50.
 Defaulting to unpruned grid for atomic number  50.
 Defaulting to unpruned grid for atomic number  50.
 Defaulting to unpruned grid for atomic number  50.
 Defaulting to unpruned grid for atomic number  50.
 Defaulting to unpruned grid for atomic number  50.
 Defaulting to unpruned grid for atomic number  50.
 Defaulting to unpruned grid for atomic number  50.
 Defaulting to unpruned grid for atomic number  50.
 Defaulting to unpruned grid for atomic number  50.
 Defaulting to unpruned grid for atomic number  50.
 Defaulting to unpruned grid for atomic number  50.
 Defaulting to unpruned grid for atomic number  50.
 Defaulting to unpruned grid for atomic number  50.
 Defaulting to unpruned grid for atomic number  50.
 Defaulting to unpruned grid for atomic number  50.
 Defaulting to unpruned grid for atomic number  50.
 Defaulting to unpruned grid for atomic number  50.
 FoFCou: FMM=F IPFlag=           0 FMFlag=      100000 FMFlg1=           0
         NFxFlg=           0 DoJE=T BraDBF=F KetDBF=T FulRan=T
         Omega=  0.000000  0.000000  1.000000  0.000000  0.000000 ICntrl=     500 IOpCl=  0
         NMat0=    1 NMatS0=    1 NMatT0=    0 NMatD0=    1 NMtDS0=    0 NMtDT0=    0
         I1Cent=           4 NGrid=           0.
 Petite list used in FoFCou.
 Initial guess orbital symmetries:
       Occupied  (A) (A) (A) (A) (A) (A) (A) (A) (A) (A) (A) (A)
                 (A) (A) (A) (A) (A) (A) (A) (A)
       Virtual   (A) (A) (A) (A) (A) (A) (A) (A) (A) (A) (A) (A)
                 (A) (A) (A) (A) (A) (A) (A) (A) (A) (A) (A) (A)
                 (A) (A) (A) (A) (A) (A) (A) (A) (A) (A) (A) (A)
                 (A) (A) (A)
 The electronic state of the initial guess is 1-A.
 Requested convergence on RMS density matrix=1.00D-08 within 128 cycles.
 Requested convergence on MAX density matrix=1.00D-06.
 Requested convergence on             energy=1.00D-06.
 No special actions if energy rises.
 Keep R1 ints in memory in canonical form, NReq=2397822.
 SCF Done:  E(RHF) =  -196.763557954     A.U. after   15 cycles
             Convg  =    0.6118D-08             -V/T =  2.0703

 **********************************************************************

            Population analysis using the SCF density.

 **********************************************************************

 Orbital symmetries:
       Occupied  (A) (A) (A) (A) (A) (A) (A) (A) (A) (A) (A) (A)
                 (A) (A) (A) (A) (A) (A) (A) (A)
       Virtual   (A) (A) (A) (A) (A) (A) (A) (A) (A) (A) (A) (A)
                 (A) (A) (A) (A) (A) (A) (A) (A) (A) (A) (A) (A)
                 (A) (A) (A) (A) (A) (A) (A) (A) (A) (A) (A) (A)
                 (A) (A) (A)
 The electronic state is 1-A.
 Alpha  occ. eigenvalues --  -26.32792 -11.37397 -11.31084  -1.65244  -1.12046
 Alpha  occ. eigenvalues --   -0.99467  -0.82978  -0.74881  -0.71165  -0.71030
 Alpha  occ. eigenvalues --   -0.66114  -0.60376  -0.56858  -0.49178  -0.48617
 Alpha  occ. eigenvalues --   -0.46703  -0.42365  -0.41316  -0.37870  -0.24859
 Alpha virt. eigenvalues --    0.00289   0.07828   0.09434   0.12194   0.13956
 Alpha virt. eigenvalues --    0.15539   0.20833   0.26406   0.26793   0.28094
 Alpha virt. eigenvalues --    0.32389   0.33106   0.33704   0.35871   0.37082
 Alpha virt. eigenvalues --    0.43824   0.46659   0.48775   0.57155   0.58171
 Alpha virt. eigenvalues --    0.60082   0.64144   0.70800   0.72536   0.75523
 Alpha virt. eigenvalues --    0.84718   0.98482   1.14506   1.20314   1.23429
 Alpha virt. eigenvalues --    1.25410   1.28273   1.30671   1.37476   1.44378
 Alpha virt. eigenvalues --    2.35837  12.20215  13.46437  20.02605
          Condensed to atoms (all electrons):
              1          2          3          4          5          6
     1  C    4.989179   0.347720   0.003632   0.000000   0.000002  -0.062077
     2  C    0.347720   6.002657  -0.023293   0.000064   0.000320   0.200898
     3  H    0.003632  -0.023293   0.779708   0.000054   0.000010   0.381035
     4  H    0.000000   0.000064   0.000054   0.790534  -0.006572  -0.015520
     5  H    0.000002   0.000320   0.000010  -0.006572   0.786770  -0.018119
     6  Sn  -0.062077   0.200898   0.381035  -0.015520  -0.018119   2.451466
     7  Sn  -0.000327  -0.030739  -0.017347   0.362232   0.366047   0.537490
     8  F    0.195370  -0.039815  -0.000582   0.000000   0.000000   0.005648
     9  H    0.401122  -0.068211  -0.000010   0.000000   0.000000   0.002276
    10  Br  -0.107049   0.255003   0.000296   0.000002  -0.000205  -0.055898
              7          8          9         10
     1  C   -0.000327   0.195370   0.401122  -0.107049
     2  C   -0.030739  -0.039815  -0.068211   0.255003
     3  H   -0.017347  -0.000582  -0.000010   0.000296
     4  H    0.362232   0.000000   0.000000   0.000002
     5  H    0.366047   0.000000   0.000000  -0.000205
     6  Sn   0.537490   0.005648   0.002276  -0.055898
     7  Sn   2.504345   0.000079  -0.000044   0.007079
     8  F    0.000079   9.195302  -0.041089   0.002180
     9  H   -0.000044  -0.041089   0.473724  -0.001783
    10  Br   0.007079   0.002180  -0.001783   6.866555
 Mulliken atomic charges:
              1
     1  C    0.232429
     2  C   -0.644605
     3  H   -0.123503
     4  H   -0.130794
     5  H   -0.128254
     6  Sn   0.572801
     7  Sn   0.271184
     8  F   -0.317093
     9  H    0.234014
    10  Br   0.033820
 Sum of Mulliken atomic charges =   0.00000
 Mulliken charges with hydrogens summed into heavy atoms:
              1
     1  C    0.466443
     2  C   -0.644605
     6  Sn   0.449298
     7  Sn   0.012137
     8  F   -0.317093
    10  Br   0.033820
 Sum of Mulliken charges with hydrogens summed into heavy atoms =   0.00000
 Electronic spatial extent (au):  <R**2>=           1295.3714
 Charge=              0.0000 electrons
 Dipole moment (field-independent basis, Debye):
    X=             -0.3076    Y=              0.5398    Z=             -0.3366  Tot=              0.7067
 Quadrupole moment (field-independent basis, Debye-Ang):
   XX=            -61.6161   YY=            -73.8330   ZZ=            -70.9591
   XY=              1.8887   XZ=              0.2574   YZ=              0.1884
 Traceless Quadrupole moment (field-independent basis, Debye-Ang):
   XX=              7.1866   YY=             -5.0303   ZZ=             -2.1563
   XY=              1.8887   XZ=              0.2574   YZ=              0.1884
 Octapole moment (field-independent basis, Debye-Ang**2):
  XXX=            -61.6415  YYY=             24.0636  ZZZ=             -1.2227  XYY=            -45.8371
  XXY=             12.4640  XXZ=             -0.1433  XZZ=            -26.7115  YZZ=              2.6311
  YYZ=             -1.2720  XYZ=              0.0670
 Hexadecapole moment (field-independent basis, Debye-Ang**3):
 XXXX=          -1655.9693 YYYY=           -771.8668 ZZZZ=           -149.3386 XXXY=             41.1497
 XXXZ=             -1.7810 YYYX=             94.3151 YYYZ=              6.0368 ZZZX=              0.8350
 ZZZY=              1.6874 XXYY=           -473.7159 XXZZ=           -330.3202 YYZZ=           -149.8016
 XXYZ=              1.1383 YYXZ=             -0.4240 ZZXY=              8.0697
 N-N= 1.351292137470D+02 E-N=-7.265768278428D+02  KE= 1.838380495301D+02
   1 Symmetry operations used in ECPInt.
 ECPInt:  NShTT=     630 NPrTT=    3262 LenC2=     622 LenP2D=    2682.
 LDataN:  DoStor=T MaxTD1= 5 Len=  102
 Calling FoFJK, ICntrl=      2127 FMM=F ISym2X=0 I1Cent= 0 IOpClX= 0 NMat=1 NMatS=1 NMatT=0.
 ***** Axes restored to original set *****
 -------------------------------------------------------------------
 Center     Atomic                   Forces (Hartrees/Bohr)
 Number     Number              X              Y              Z
 -------------------------------------------------------------------
      1        6           0.021304121   -0.041523513   -0.000198939
      2        6          -0.017699729    0.029639375   -0.002029498
      3        1          -0.000978803   -0.001295723    0.003449599
      4        1           0.000157847    0.001094100    0.002545993
      5        1          -0.000814172   -0.000327583    0.006464748
      6       50          -0.010076098    0.005172496    0.000532726
      7       50           0.003322138   -0.002744024   -0.011930307
      8        9          -0.011065338    0.010189965    0.000265366
      9        1          -0.002053197    0.011274448    0.000043968
     10       35           0.017903232   -0.011479541    0.000856343
 -------------------------------------------------------------------
 Cartesian Forces:  Max     0.041523513 RMS     0.012300386

 GradGradGradGradGradGradGradGradGradGradGradGradGradGradGradGradGradGrad
 Berny optimization.
 Internal  Forces:  Max     0.021017587 RMS     0.007395269
 Search for a local minimum.
 Step number   1 out of a maximum of   43
 All quantities printed in internal units (Hartrees-Bohrs-Radians)
 Mixed Optimization -- RFO/linear search
 Second derivative matrix not updated -- first step.
     Eigenvalues ---    0.00230   0.00230   0.00230   0.00558   0.01570
     Eigenvalues ---    0.02877   0.02877   0.11426   0.13078   0.13270
     Eigenvalues ---    0.13286   0.13996   0.15353   0.16000   0.16000
     Eigenvalues ---    0.16000   0.17771   0.22000   0.22187   0.25000
     Eigenvalues ---    0.25000   0.37230   0.55021   0.571211000.00000
     Eigenvalues --- 1000.000001000.000001000.000001000.000001000.00000
     Eigenvalues --- 1000.000001000.000001000.00000
 RFO step:  Lambda=-1.61653455D-02 EMin= 2.30000000D-03
 Linear search not attempted -- first point.
 Maximum step size (   0.300) exceeded in Quadratic search.
    -- Step size scaled by   0.402
 Iteration  1 RMS(Cart)=  0.06139503 RMS(Int)=  0.00600270
 Iteration  2 RMS(Cart)=  0.00530750 RMS(Int)=  0.00289502
 Iteration  3 RMS(Cart)=  0.00001260 RMS(Int)=  0.00289500
 Iteration  4 RMS(Cart)=  0.00000007 RMS(Int)=  0.00289500
 Variable       Old X    -DE/DX   Delta X   Delta X   Delta X     New X
                                 (Linear)    (Quad)   (Total)
    R1        2.53294  -0.01773   0.00000  -0.01215  -0.01215   2.52079
    R2        2.55113   0.01502   0.00000   0.01067   0.01067   2.56180
    R3        2.02201   0.00165   0.00000   0.00171   0.00171   2.02372
    R4        3.96881   0.00713   0.00000   0.01837   0.01837   3.98718
    R5        3.60938   0.02102   0.00000   0.04363   0.04363   3.65300
    R6        3.20034  -0.00149   0.00000  -0.00407  -0.00407   3.19626
    R7        3.18793  -0.00048   0.00000  -0.00130  -0.00130   3.18664
    R8        3.18888  -0.00034   0.00000  -0.00091  -0.00091   3.18798
    R9        4.84760   0.00130   0.00000   0.00401   0.00401   4.85161
    A1        2.14630  -0.00907   0.00000  -0.01546  -0.01546   2.13084
    A2        2.12020   0.01600   0.00000   0.03392   0.03392   2.15411
    A3        2.01669  -0.00693   0.00000  -0.01846  -0.01846   1.99823
    A4        2.16671   0.00039   0.00000   0.00059   0.00058   2.16730
    A5        2.06987  -0.00606   0.00000  -0.00917  -0.00918   2.06069
    A6        2.04660   0.00567   0.00000   0.00857   0.00856   2.05516
    A7        1.91234   0.00597   0.00000   0.01325   0.01324   1.92557
    A8        2.17828  -0.00848   0.00000  -0.01309  -0.01311   2.16517
    A9        2.12623   0.00235   0.00000   0.00487   0.00484   2.13108
   A10        2.03938   0.00020   0.00000   0.00045  -0.00928   2.03010
   A11        2.11262  -0.00298   0.00000  -0.00680  -0.01623   2.09639
   A12        2.13119   0.00278   0.00000   0.00636  -0.00306   2.12813
    D1        0.00000  -0.00010   0.00000  -0.00235  -0.00233  -0.00233
    D2        3.14159   0.00067   0.00000   0.00744   0.00741  -3.13418
    D3        3.14159  -0.00043   0.00000  -0.00523  -0.00521   3.13638
    D4        0.00000   0.00035   0.00000   0.00455   0.00453   0.00453
    D5        0.37989  -0.00037   0.00000  -0.01335  -0.01334   0.36655
    D6        3.14159   0.00019   0.00000   0.00236   0.00238  -3.13921
    D7       -2.76170  -0.00114   0.00000  -0.02302  -0.02305  -2.78475
    D8        0.00000  -0.00058   0.00000  -0.00731  -0.00733  -0.00733
    D9        3.14159  -0.00394   0.00000  -0.08503  -0.08399   3.05760
   D10        0.00000   0.00826   0.00000   0.18102   0.17998   0.17998
   D11       -0.42379  -0.00301   0.00000  -0.06652  -0.06548  -0.48927
   D12        2.71780   0.00920   0.00000   0.19954   0.19849   2.91629
         Item               Value     Threshold  Converged?
 Maximum Force            0.021018     0.000450     NO 
 RMS     Force            0.007395     0.000300     NO 
 Maximum Displacement     0.227241     0.001800     NO 
 RMS     Displacement     0.061535     0.001200     NO 
 Predicted change in Energy=-5.877850D-03
 GradGradGradGradGradGradGradGradGradGradGradGradGradGradGradGradGradGrad

                          Input orientation:                          
 ---------------------------------------------------------------------
 Center     Atomic      Atomic             Coordinates (Angstroms)
 Number     Number       Type             X           Y           Z
 ---------------------------------------------------------------------
      1          6           0        2.263008    2.970925    0.009693
      2          6           0        1.958276    1.672727   -0.025452
      3          1           0       -1.092204    2.105277   -0.572676
      4          1           0       -2.200102   -2.080347    0.010286
      5          1           0        0.577563   -2.776313    0.120251
      6         50           0       -0.011876    0.917706   -0.040356
      7         50           0       -0.593041   -1.582229   -0.102980
      8          9           0        1.309348    3.934034    0.036735
      9          1           0        3.267940    3.340805    0.021531
     10         35           0        3.411067    0.397707   -0.048758
 ---------------------------------------------------------------------
                    Distance matrix (angstroms):
                    1          2          3          4          5
     1  C    0.000000
     2  C    1.333946   0.000000
     3  H    3.513680   3.129214   0.000000
     4  H    6.740526   5.601692   4.368837   0.000000
     5  H    5.990299   4.660639   5.205592   2.865639   0.000000
     6  Sn   3.064851   2.109924   1.691389   3.712037   3.744196
     7  Sn   5.375958   4.136420   3.750664   1.686296   1.687004
     8  F    1.355647   2.353398   3.079477   6.963455   6.750647
     9  H    1.070906   2.121299   4.570609   7.699902   6.683338
    10  Br   2.818316   1.933086   4.844556   6.134285   4.258134
                    6          7          8          9         10
     6  Sn   0.000000
     7  Sn   2.567362   0.000000
     8  F    3.293905   5.836759   0.000000
     9  H    4.078288   6.257711   2.046518   0.000000
    10  Br   3.462225   4.467210   4.114625   2.947414   0.000000
 Stoichiometry    C2H4BrFSn2
 Framework group  C1[X(C2H4BrFSn2)]
 Deg. of freedom    24
 Full point group                 C1      NOp   1
 Largest Abelian subgroup         C1      NOp   1
 Largest concise Abelian subgroup C1      NOp   1
                         Standard orientation:                         
 ---------------------------------------------------------------------
 Center     Atomic      Atomic             Coordinates (Angstroms)
 Number     Number       Type             X           Y           Z
 ---------------------------------------------------------------------
      1          6           0        2.927409   -0.919926   -0.011307
      2          6           0        1.807081   -0.195940   -0.000312
      3          1           0       -0.099079   -2.618846    0.536401
      4          1           0       -3.790283   -0.377366   -0.125043
      5          1           0       -2.270373    2.049689   -0.230705
      6         50           0       -0.135854   -1.018553   -0.009955
      7         50           0       -2.289112    0.379507    0.006197
      8          9           0        2.908808   -2.275350   -0.027344
      9          1           0        3.907958   -0.489387   -0.010886
     10         35           0        1.968967    1.730330    0.009541
 ---------------------------------------------------------------------
 Rotational constants (GHZ):      1.0186284      0.4000437      0.2873641
 Standard basis: LANL2DZ (5D, 7F)
 There are    59 symmetry adapted basis functions of A   symmetry.
 Integral buffers will be    131072 words long.
 Raffenetti 1 integral format.
 Two-electron integral symmetry is turned on.
    59 basis functions,   127 primitive gaussians,    59 cartesian basis functions
    20 alpha electrons       20 beta electrons
       nuclear repulsion energy       134.9028987522 Hartrees.
 NAtoms=   10 NActive=   10 NUniq=   10 SFac= 7.50D-01 NAtFMM=   80 NAOKFM=F Big=F
 One-electron integrals computed using PRISM.
   1 Symmetry operations used in ECPInt.
 ECPInt:  NShTT=     630 NPrTT=    3262 LenC2=     622 LenP2D=    2681.
 LDataN:  DoStor=T MaxTD1= 4 Len=   56
 NBasis=    59 RedAO= T  NBF=    59
 NBsUse=    59 1.00D-06 NBFU=    59
 Initial guess read from the read-write file.
 B after Tr=     0.000000    0.000000    0.000000
         Rot=    1.000000    0.000000    0.000000    0.000000 Ang=   0.00 deg.
 Initial guess orbital symmetries:
       Occupied  (A) (A) (A) (A) (A) (A) (A) (A) (A) (A) (A) (A)
                 (A) (A) (A) (A) (A) (A) (A) (A)
       Virtual   (A) (A) (A) (A) (A) (A) (A) (A) (A) (A) (A) (A)
                 (A) (A) (A) (A) (A) (A) (A) (A) (A) (A) (A) (A)
                 (A) (A) (A) (A) (A) (A) (A) (A) (A) (A) (A) (A)
                 (A) (A) (A)
 Harris functional with IExCor=  205 diagonalized for initial guess.
 ExpMin= 6.30D-02 ExpMax= 1.00D+04 ExpMxC= 3.50D+02 IAcc=2 IRadAn=         0 AccDes= 0.00D+00
 HarFok:  IExCor=  205 AccDes= 0.00D+00 IRadAn=         0 IDoV= 1
 ScaDFX=  1.000000  1.000000  1.000000  1.000000
 Defaulting to unpruned grid for atomic number  50.
 Defaulting to unpruned grid for atomic number  50.
 Defaulting to unpruned grid for atomic number  50.
 Defaulting to unpruned grid for atomic number  50.
 Defaulting to unpruned grid for atomic number  50.
 Defaulting to unpruned grid for atomic number  50.
 Defaulting to unpruned grid for atomic number  50.
 Defaulting to unpruned grid for atomic number  50.
 Defaulting to unpruned grid for atomic number  50.
 Defaulting to unpruned grid for atomic number  50.
 Defaulting to unpruned grid for atomic number  50.
 Defaulting to unpruned grid for atomic number  50.
 Defaulting to unpruned grid for atomic number  50.
 Defaulting to unpruned grid for atomic number  50.
 Defaulting to unpruned grid for atomic number  50.
 Defaulting to unpruned grid for atomic number  50.
 Defaulting to unpruned grid for atomic number  50.
 Defaulting to unpruned grid for atomic number  50.
 Defaulting to unpruned grid for atomic number  50.
 Defaulting to unpruned grid for atomic number  50.
 Defaulting to unpruned grid for atomic number  50.
 Defaulting to unpruned grid for atomic number  50.
 Defaulting to unpruned grid for atomic number  50.
 Defaulting to unpruned grid for atomic number  50.
 FoFCou: FMM=F IPFlag=           0 FMFlag=      100000 FMFlg1=           0
         NFxFlg=           0 DoJE=T BraDBF=F KetDBF=T FulRan=T
         Omega=  0.000000  0.000000  1.000000  0.000000  0.000000 ICntrl=     500 IOpCl=  0
         NMat0=    1 NMatS0=    1 NMatT0=    0 NMatD0=    1 NMtDS0=    0 NMtDT0=    0
         I1Cent=           4 NGrid=           0.
 Petite list used in FoFCou.
 Requested convergence on RMS density matrix=1.00D-08 within 128 cycles.
 Requested convergence on MAX density matrix=1.00D-06.
 Requested convergence on             energy=1.00D-06.
 No special actions if energy rises.
 Keep R1 ints in memory in canonical form, NReq=2397822.
 SCF Done:  E(RHF) =  -196.769254711     A.U. after   12 cycles
             Convg  =    0.8429D-08             -V/T =  2.0704
   1 Symmetry operations used in ECPInt.
 ECPInt:  NShTT=     630 NPrTT=    3262 LenC2=     622 LenP2D=    2681.
 LDataN:  DoStor=T MaxTD1= 5 Len=  102
 Calling FoFJK, ICntrl=      2127 FMM=F ISym2X=0 I1Cent= 0 IOpClX= 0 NMat=1 NMatS=1 NMatT=0.
 ***** Axes restored to original set *****
 -------------------------------------------------------------------
 Center     Atomic                   Forces (Hartrees/Bohr)
 Number     Number              X              Y              Z
 -------------------------------------------------------------------
      1        6           0.019235421   -0.029177165   -0.000648390
      2        6          -0.012315161    0.017367916   -0.003728107
      3        1          -0.000063426   -0.001051539   -0.000002574
      4        1          -0.000492019    0.000706838    0.002648338
      5        1          -0.000702957   -0.000264453    0.005192175
      6       50          -0.006912721    0.006112755    0.007599519
      7       50           0.003125567   -0.004184654   -0.012270959
      8        9          -0.009742793    0.008881287    0.000066332
      9        1          -0.002398846    0.007753162    0.000617309
     10       35           0.010266935   -0.006144147    0.000526357
 -------------------------------------------------------------------
 Cartesian Forces:  Max     0.029177165 RMS     0.008999208

 GradGradGradGradGradGradGradGradGradGradGradGradGradGradGradGradGradGrad
 Berny optimization.
 Using GEDIIS/GDIIS optimizer.
 Internal  Forces:  Max     0.013164754 RMS     0.005263501
 Search for a local minimum.
 Step number   2 out of a maximum of   43
 All quantities printed in internal units (Hartrees-Bohrs-Radians)
 Mixed Optimization -- RFO/linear search
 Update second derivatives using D2CorX and points    1    2
 DE= -5.70D-03 DEPred=-5.88D-03 R= 9.69D-01
 SS=  1.41D+00  RLast= 2.99D-01 DXNew= 5.0454D-01 8.9584D-01
 Trust test= 9.69D-01 RLast= 2.99D-01 DXMaxT set to 5.05D-01
 Use linear search instead of GDIIS.
 Linear search step of   0.597 exceeds DXMaxT=   0.505 but not scaled.
 Quartic linear search produced a step of  2.00000.
 Iteration  1 RMS(Cart)=  0.07551976 RMS(Int)=  0.04653557
 Iteration  2 RMS(Cart)=  0.06513535 RMS(Int)=  0.01805378
 Iteration  3 RMS(Cart)=  0.00489926 RMS(Int)=  0.01743023
 Iteration  4 RMS(Cart)=  0.00022591 RMS(Int)=  0.01742979
 Iteration  5 RMS(Cart)=  0.00001604 RMS(Int)=  0.01742979
 Iteration  6 RMS(Cart)=  0.00000117 RMS(Int)=  0.01742979
 Iteration  7 RMS(Cart)=  0.00000009 RMS(Int)=  0.01742979
 Variable       Old X    -DE/DX   Delta X   Delta X   Delta X     New X
                                 (Linear)    (Quad)   (Total)
    R1        2.52079  -0.01059  -0.02430   0.00000  -0.02430   2.49649
    R2        2.56180   0.01316   0.02134   0.00000   0.02134   2.58314
    R3        2.02372   0.00043   0.00342   0.00000   0.00342   2.02714
    R4        3.98718   0.00422   0.03674   0.00000   0.03674   4.02392
    R5        3.65300   0.01176   0.08725   0.00000   0.08725   3.74025
    R6        3.19626  -0.00070  -0.00815   0.00000  -0.00815   3.18811
    R7        3.18664   0.00044  -0.00259   0.00000  -0.00259   3.18405
    R8        3.18798   0.00039  -0.00181   0.00000  -0.00181   3.18616
    R9        4.85161   0.00332   0.00802   0.00000   0.00802   4.85963
    A1        2.13084  -0.00663  -0.03091   0.00000  -0.03092   2.09992
    A2        2.15411   0.01153   0.06783   0.00000   0.06783   2.22194
    A3        1.99823  -0.00490  -0.03693   0.00000  -0.03693   1.96130
    A4        2.16730   0.00167   0.00116   0.00000   0.00108   2.16838
    A5        2.06069  -0.00479  -0.01836   0.00000  -0.01843   2.04226
    A6        2.05516   0.00311   0.01712   0.00000   0.01704   2.07219
    A7        1.92557   0.00391   0.02647   0.00000   0.02634   1.95192
    A8        2.16517  -0.00706  -0.02623   0.00000  -0.02636   2.13881
    A9        2.13108   0.00189   0.00969   0.00000   0.00955   2.14062
   A10        2.03010   0.00017  -0.01856   0.00000  -0.08214   1.94796
   A11        2.09639  -0.00301  -0.03247   0.00000  -0.08103   2.01536
   A12        2.12813   0.00049  -0.00612   0.00000  -0.05358   2.07454
    D1       -0.00233  -0.00062  -0.00466   0.00000  -0.00452  -0.00685
    D2       -3.13418   0.00021   0.01483   0.00000   0.01469  -3.11949
    D3        3.13638  -0.00076  -0.01042   0.00000  -0.01028   3.12610
    D4        0.00453   0.00007   0.00906   0.00000   0.00892   0.01346
    D5        0.36655   0.00144  -0.02667   0.00000  -0.02657   0.33998
    D6       -3.13921  -0.00143   0.00477   0.00000   0.00494  -3.13427
    D7       -2.78475   0.00057  -0.04610   0.00000  -0.04627  -2.83102
    D8       -0.00733  -0.00231  -0.01466   0.00000  -0.01476  -0.02209
    D9        3.05760  -0.00199  -0.16798   0.00000  -0.14945   2.90816
   D10        0.17998   0.00866   0.35996   0.00000   0.34145   0.52144
   D11       -0.48927  -0.00511  -0.13096   0.00000  -0.11245  -0.60172
   D12        2.91629   0.00553   0.39699   0.00000   0.37845  -2.98844
         Item               Value     Threshold  Converged?
 Maximum Force            0.013165     0.000450     NO 
 RMS     Force            0.005264     0.000300     NO 
 Maximum Displacement     0.425759     0.001800     NO 
 RMS     Displacement     0.123234     0.001200     NO 
 Predicted change in Energy=-5.923852D-03
 GradGradGradGradGradGradGradGradGradGradGradGradGradGradGradGradGradGrad

                          Input orientation:                          
 ---------------------------------------------------------------------
 Center     Atomic      Atomic             Coordinates (Angstroms)
 Number     Number       Type             X           Y           Z
 ---------------------------------------------------------------------
      1          6           0        2.273014    2.939725    0.027115
      2          6           0        1.962771    1.659620   -0.074635
      3          1           0       -1.142627    2.107353   -0.531752
      4          1           0       -2.154088   -2.030653    0.031037
      5          1           0        0.531280   -2.711878    0.345553
      6         50           0       -0.029615    0.909390   -0.116641
      7         50           0       -0.559232   -1.600327   -0.300966
      8          9           0        1.288051    3.884271    0.105905
      9          1           0        3.255057    3.369614    0.066001
     10         35           0        3.465367    0.373175   -0.143342
 ---------------------------------------------------------------------
                    Distance matrix (angstroms):
                    1          2          3          4          5
     1  C    0.000000
     2  C    1.321088   0.000000
     3  H    3.559744   3.170633   0.000000
     4  H    6.656118   5.529720   4.296845   0.000000
     5  H    5.922470   4.619060   5.176545   2.788223   0.000000
     6  Sn   3.073276   2.129368   1.687076   3.630295   3.693482
     7  Sn   5.361094   4.127829   3.760386   1.684925   1.686045
     8  F    1.366941   2.331719   3.077700   6.843993   6.643742
     9  H    1.072718   2.147990   4.614134   7.643490   6.669456
    10  Br   2.835126   1.979257   4.938810   6.114496   4.285491
                    6          7          8          9         10
     6  Sn   0.000000
     7  Sn   2.571604   0.000000
     8  F    3.261240   5.801621   0.000000
     9  H    4.107935   6.275649   2.033612   0.000000
    10  Br   3.535978   4.485192   4.138916   3.011096   0.000000
 Stoichiometry    C2H4BrFSn2
 Framework group  C1[X(C2H4BrFSn2)]
 Deg. of freedom    24
 Full point group                 C1      NOp   1
 Largest Abelian subgroup         C1      NOp   1
 Largest concise Abelian subgroup C1      NOp   1
                         Standard orientation:                         
 ---------------------------------------------------------------------
 Center     Atomic      Atomic             Coordinates (Angstroms)
 Number     Number       Type             X           Y           Z
 ---------------------------------------------------------------------
      1          6           0       -2.906499   -0.951683    0.012782
      2          6           0       -1.800643   -0.229278   -0.009248
      3          1           0        0.176230   -2.664896   -0.470392
      4          1           0        3.715687   -0.370438    0.348504
      5          1           0        2.210997    1.952763    0.684411
      6         50           0        0.165289   -1.047211    0.008360
      7         50           0        2.275407    0.422391   -0.020261
      8          9           0       -2.838568   -2.316635    0.041410
      9          1           0       -3.917439   -0.592949    0.018622
     10         35           0       -2.012294    1.738629   -0.010856
 ---------------------------------------------------------------------
 Rotational constants (GHZ):      0.9824783      0.4007920      0.2849515
 Standard basis: LANL2DZ (5D, 7F)
 There are    59 symmetry adapted basis functions of A   symmetry.
 Integral buffers will be    131072 words long.
 Raffenetti 1 integral format.
 Two-electron integral symmetry is turned on.
    59 basis functions,   127 primitive gaussians,    59 cartesian basis functions
    20 alpha electrons       20 beta electrons
       nuclear repulsion energy       134.5322732288 Hartrees.
 NAtoms=   10 NActive=   10 NUniq=   10 SFac= 7.50D-01 NAtFMM=   80 NAOKFM=F Big=F
 One-electron integrals computed using PRISM.
   1 Symmetry operations used in ECPInt.
 ECPInt:  NShTT=     630 NPrTT=    3262 LenC2=     622 LenP2D=    2684.
 LDataN:  DoStor=T MaxTD1= 4 Len=   56
 NBasis=    59 RedAO= T  NBF=    59
 NBsUse=    59 1.00D-06 NBFU=    59
 Initial guess read from the read-write file.
 B after Tr=     0.000000    0.000000    0.000000
         Rot=    1.000000    0.000000    0.000000    0.000000 Ang=   0.00 deg.
 Initial guess orbital symmetries:
       Occupied  (A) (A) (A) (A) (A) (A) (A) (A) (A) (A) (A) (A)
                 (A) (A) (A) (A) (A) (A) (A) (A)
       Virtual   (A) (A) (A) (A) (A) (A) (A) (A) (A) (A) (A) (A)
                 (A) (A) (A) (A) (A) (A) (A) (A) (A) (A) (A) (A)
                 (A) (A) (A) (A) (A) (A) (A) (A) (A) (A) (A) (A)
                 (A) (A) (A)
 Harris functional with IExCor=  205 diagonalized for initial guess.
 ExpMin= 6.30D-02 ExpMax= 1.00D+04 ExpMxC= 3.50D+02 IAcc=2 IRadAn=         0 AccDes= 0.00D+00
 HarFok:  IExCor=  205 AccDes= 0.00D+00 IRadAn=         0 IDoV= 1
 ScaDFX=  1.000000  1.000000  1.000000  1.000000
 Defaulting to unpruned grid for atomic number  50.
 Defaulting to unpruned grid for atomic number  50.
 Defaulting to unpruned grid for atomic number  50.
 Defaulting to unpruned grid for atomic number  50.
 Defaulting to unpruned grid for atomic number  50.
 Defaulting to unpruned grid for atomic number  50.
 Defaulting to unpruned grid for atomic number  50.
 Defaulting to unpruned grid for atomic number  50.
 Defaulting to unpruned grid for atomic number  50.
 Defaulting to unpruned grid for atomic number  50.
 Defaulting to unpruned grid for atomic number  50.
 Defaulting to unpruned grid for atomic number  50.
 Defaulting to unpruned grid for atomic number  50.
 Defaulting to unpruned grid for atomic number  50.
 Defaulting to unpruned grid for atomic number  50.
 Defaulting to unpruned grid for atomic number  50.
 Defaulting to unpruned grid for atomic number  50.
 Defaulting to unpruned grid for atomic number  50.
 Defaulting to unpruned grid for atomic number  50.
 Defaulting to unpruned grid for atomic number  50.
 Defaulting to unpruned grid for atomic number  50.
 Defaulting to unpruned grid for atomic number  50.
 Defaulting to unpruned grid for atomic number  50.
 Defaulting to unpruned grid for atomic number  50.
 FoFCou: FMM=F IPFlag=           0 FMFlag=      100000 FMFlg1=           0
         NFxFlg=           0 DoJE=T BraDBF=F KetDBF=T FulRan=T
         Omega=  0.000000  0.000000  1.000000  0.000000  0.000000 ICntrl=     500 IOpCl=  0
         NMat0=    1 NMatS0=    1 NMatT0=    0 NMatD0=    1 NMtDS0=    0 NMtDT0=    0
         I1Cent=           4 NGrid=           0.
 Petite list used in FoFCou.
 Requested convergence on RMS density matrix=1.00D-08 within 128 cycles.
 Requested convergence on MAX density matrix=1.00D-06.
 Requested convergence on             energy=1.00D-06.
 No special actions if energy rises.
 Keep R1 ints in memory in canonical form, NReq=2397822.
 SCF Done:  E(RHF) =  -196.775308043     A.U. after   16 cycles
             Convg  =    0.4223D-08             -V/T =  2.0705
   1 Symmetry operations used in ECPInt.
 ECPInt:  NShTT=     630 NPrTT=    3262 LenC2=     622 LenP2D=    2684.
 LDataN:  DoStor=T MaxTD1= 5 Len=  102
 Calling FoFJK, ICntrl=      2127 FMM=F ISym2X=0 I1Cent= 0 IOpClX= 0 NMat=1 NMatS=1 NMatT=0.
 ***** Axes restored to original set *****
 -------------------------------------------------------------------
 Center     Atomic                   Forces (Hartrees/Bohr)
 Number     Number              X              Y              Z
 -------------------------------------------------------------------
      1        6           0.015633103   -0.003793973    0.000420579
      2        6          -0.003776252   -0.005772625   -0.007219952
      3        1           0.001267826    0.001679037   -0.005627652
      4        1          -0.003728264    0.000387425    0.002129514
      5        1           0.001787958   -0.000995878    0.002763072
      6       50           0.000364323    0.008472902    0.017877214
      7       50           0.001514273   -0.010699753   -0.011232260
      8        9          -0.007349531    0.006763624   -0.000374984
      9        1          -0.002535379    0.001015947    0.000958252
     10       35          -0.003178058    0.002943293    0.000306216
 -------------------------------------------------------------------
 Cartesian Forces:  Max     0.017877214 RMS     0.006289616

 GradGradGradGradGradGradGradGradGradGradGradGradGradGradGradGradGradGrad
 Berny optimization.
 Using GEDIIS/GDIIS optimizer.
 Internal  Forces:  Max     0.011578217 RMS     0.004131025
 Search for a local minimum.
 Step number   3 out of a maximum of   43
 All quantities printed in internal units (Hartrees-Bohrs-Radians)
 Mixed Optimization -- RFO/linear search
 Update second derivatives using D2CorX and points    2    3
 Use linear search instead of GDIIS.
     Eigenvalues ---    0.00230   0.00253   0.00788   0.01531   0.01769
     Eigenvalues ---    0.02877   0.02891   0.09924   0.13029   0.13114
     Eigenvalues ---    0.13276   0.14157   0.14796   0.15655   0.16007
     Eigenvalues ---    0.16301   0.19813   0.21131   0.22082   0.24755
     Eigenvalues ---    0.25648   0.37311   0.52178   0.588511000.00000
     Eigenvalues --- 1000.000001000.000001000.000001000.000001000.00000
     Eigenvalues --- 1000.000001000.000001000.00000
 RFO step:  Lambda=-1.10317738D-02 EMin= 2.29844642D-03
 Quartic linear search produced a step of  0.26793.
 Maximum step size (   0.505) exceeded in Quadratic search.
    -- Step size scaled by   0.725
 Iteration  1 RMS(Cart)=  0.07146289 RMS(Int)=  0.02529330
 Iteration  2 RMS(Cart)=  0.03327728 RMS(Int)=  0.00795581
 Iteration  3 RMS(Cart)=  0.00150463 RMS(Int)=  0.00788246
 Iteration  4 RMS(Cart)=  0.00002695 RMS(Int)=  0.00788245
 Iteration  5 RMS(Cart)=  0.00000078 RMS(Int)=  0.00788245
 Variable       Old X    -DE/DX   Delta X   Delta X   Delta X     New X
                                 (Linear)    (Quad)   (Total)
    R1        2.49649   0.00529  -0.00651  -0.01298  -0.01949   2.47701
    R2        2.58314   0.00995   0.00572   0.02862   0.03434   2.61748
    R3        2.02714  -0.00188   0.00092  -0.00053   0.00039   2.02754
    R4        4.02392  -0.00084   0.00984   0.02430   0.03415   4.05807
    R5        3.74025  -0.00434   0.02338   0.05227   0.07565   3.81590
    R6        3.18811   0.00174  -0.00218   0.00254   0.00035   3.18846
    R7        3.18405   0.00385  -0.00069   0.01665   0.01596   3.20000
    R8        3.18616   0.00287  -0.00049   0.01245   0.01197   3.19813
    R9        4.85963   0.01158   0.00215   0.06976   0.07191   4.93154
    A1        2.09992  -0.00180  -0.00828  -0.02892  -0.03720   2.06272
    A2        2.22194   0.00294   0.01817   0.06209   0.08026   2.30220
    A3        1.96130  -0.00114  -0.00990  -0.03315  -0.04305   1.91824
    A4        2.16838   0.00431   0.00029   0.01162   0.01173   2.18011
    A5        2.04226  -0.00248  -0.00494  -0.02073  -0.02583   2.01643
    A6        2.07219  -0.00185   0.00456   0.00841   0.01279   2.08498
    A7        1.95192  -0.00214   0.00706  -0.02746  -0.03690   1.91502
    A8        2.13881  -0.00296  -0.00706  -0.05127  -0.07287   2.06594
    A9        2.14062   0.00252   0.00256  -0.01948  -0.03364   2.10699
   A10        1.94796   0.00173  -0.02201  -0.01545  -0.06088   1.88708
   A11        2.01536  -0.00368  -0.02171  -0.04551  -0.08175   1.93361
   A12        2.07454  -0.00228  -0.01436  -0.01878  -0.04665   2.02790
    D1       -0.00685  -0.00145  -0.00121  -0.02845  -0.02946  -0.03630
    D2       -3.11949  -0.00065   0.00394   0.00029   0.00403  -3.11546
    D3        3.12610  -0.00111  -0.00275  -0.02605  -0.02861   3.09749
    D4        0.01346  -0.00032   0.00239   0.00269   0.00488   0.01833
    D5        0.33998   0.00387  -0.00712   0.15133   0.14164   0.48162
    D6       -3.13427  -0.00361   0.00132  -0.15598  -0.15171   2.99720
    D7       -2.83102   0.00305  -0.01240   0.12169   0.10634  -2.72468
    D8       -0.02209  -0.00443  -0.00395  -0.18563  -0.18701  -0.20910
    D9        2.90816   0.00251  -0.04004   0.14986   0.11617   3.02432
   D10        0.52144   0.00728   0.09149   0.26009   0.34076   0.86219
   D11       -0.60172  -0.00679  -0.03013  -0.19281  -0.21212  -0.81384
   D12       -2.98844  -0.00202   0.10140  -0.08258   0.01247  -2.97597
         Item               Value     Threshold  Converged?
 Maximum Force            0.011578     0.000450     NO 
 RMS     Force            0.004131     0.000300     NO 
 Maximum Displacement     0.346118     0.001800     NO 
 RMS     Displacement     0.094057     0.001200     NO 
 Predicted change in Energy=-6.180161D-03
 GradGradGradGradGradGradGradGradGradGradGradGradGradGradGradGradGradGrad

                          Input orientation:                          
 ---------------------------------------------------------------------
 Center     Atomic      Atomic             Coordinates (Angstroms)
 Number     Number       Type             X           Y           Z
 ---------------------------------------------------------------------
      1          6           0        2.288194    2.919428    0.000343
      2          6           0        1.943384    1.655976   -0.053774
      3          1           0       -1.138834    2.101001   -0.507307
      4          1           0       -2.116561   -2.009592   -0.071883
      5          1           0        0.488489   -2.696580    0.434232
      6         50           0       -0.072583    0.925973    0.066516
      7         50           0       -0.504242   -1.605871   -0.395818
      8          9           0        1.283880    3.867899    0.101784
      9          1           0        3.246418    3.401933   -0.012542
     10         35           0        3.471835    0.340125   -0.153278
 ---------------------------------------------------------------------
                    Distance matrix (angstroms):
                    1          2          3          4          5
     1  C    0.000000
     2  C    1.310777   0.000000
     3  H    3.559783   3.147031   0.000000
     4  H    6.610774   5.469905   4.247649   0.000000
     5  H    5.913269   4.615150   5.152810   2.741238   0.000000
     6  Sn   3.090552   2.147439   1.687263   3.579741   3.684142
     7  Sn   5.332258   4.092372   3.762451   1.693369   1.692378
     8  F    1.385112   2.313385   3.059814   6.792500   6.620842
     9  H    1.072926   2.178983   4.600832   7.619033   6.708028
    10  Br   2.842078   2.019288   4.948160   6.062835   4.297336
                    6          7          8          9         10
     6  Sn   0.000000
     7  Sn   2.609658   0.000000
     8  F    3.239778   5.779891   0.000000
     9  H    4.141545   6.268369   2.020335   0.000000
    10  Br   3.599225   4.433386   4.159013   3.073318   0.000000
 Stoichiometry    C2H4BrFSn2
 Framework group  C1[X(C2H4BrFSn2)]
 Deg. of freedom    24
 Full point group                 C1      NOp   1
 Largest Abelian subgroup         C1      NOp   1
 Largest concise Abelian subgroup C1      NOp   1
                         Standard orientation:                         
 ---------------------------------------------------------------------
 Center     Atomic      Atomic             Coordinates (Angstroms)
 Number     Number       Type             X           Y           Z
 ---------------------------------------------------------------------
      1          6           0       -2.905940   -0.909441   -0.125747
      2          6           0       -1.785023   -0.234162   -0.050377
      3          1           0        0.168924   -2.638287   -0.603624
      4          1           0        3.674094   -0.396822    0.252027
      5          1           0        2.228688    1.847531    0.874979
      6         50           0        0.168948   -1.110100    0.111568
      7         50           0        2.248992    0.453631   -0.084590
      8          9           0       -2.836413   -2.292683   -0.144304
      9          1           0       -3.930496   -0.594478   -0.173204
     10         35           0       -1.981848    1.774321    0.018755
 ---------------------------------------------------------------------
 Rotational constants (GHZ):      0.9303158      0.4077076      0.2847843
 Standard basis: LANL2DZ (5D, 7F)
 There are    59 symmetry adapted basis functions of A   symmetry.
 Integral buffers will be    131072 words long.
 Raffenetti 1 integral format.
 Two-electron integral symmetry is turned on.
    59 basis functions,   127 primitive gaussians,    59 cartesian basis functions
    20 alpha electrons       20 beta electrons
       nuclear repulsion energy       134.1273114757 Hartrees.
 NAtoms=   10 NActive=   10 NUniq=   10 SFac= 7.50D-01 NAtFMM=   80 NAOKFM=F Big=F
 One-electron integrals computed using PRISM.
   1 Symmetry operations used in ECPInt.
 ECPInt:  NShTT=     630 NPrTT=    3262 LenC2=     622 LenP2D=    2684.
 LDataN:  DoStor=T MaxTD1= 4 Len=   56
 NBasis=    59 RedAO= T  NBF=    59
 NBsUse=    59 1.00D-06 NBFU=    59
 Initial guess read from the read-write file.
 B after Tr=     0.000000    0.000000    0.000000
         Rot=    1.000000    0.000000    0.000000    0.000000 Ang=   0.00 deg.
 Initial guess orbital symmetries:
       Occupied  (A) (A) (A) (A) (A) (A) (A) (A) (A) (A) (A) (A)
                 (A) (A) (A) (A) (A) (A) (A) (A)
       Virtual   (A) (A) (A) (A) (A) (A) (A) (A) (A) (A) (A) (A)
                 (A) (A) (A) (A) (A) (A) (A) (A) (A) (A) (A) (A)
                 (A) (A) (A) (A) (A) (A) (A) (A) (A) (A) (A) (A)
                 (A) (A) (A)
 Harris functional with IExCor=  205 diagonalized for initial guess.
 ExpMin= 6.30D-02 ExpMax= 1.00D+04 ExpMxC= 3.50D+02 IAcc=2 IRadAn=         0 AccDes= 0.00D+00
 HarFok:  IExCor=  205 AccDes= 0.00D+00 IRadAn=         0 IDoV= 1
 ScaDFX=  1.000000  1.000000  1.000000  1.000000
 Defaulting to unpruned grid for atomic number  50.
 Defaulting to unpruned grid for atomic number  50.
 Defaulting to unpruned grid for atomic number  50.
 Defaulting to unpruned grid for atomic number  50.
 Defaulting to unpruned grid for atomic number  50.
 Defaulting to unpruned grid for atomic number  50.
 Defaulting to unpruned grid for atomic number  50.
 Defaulting to unpruned grid for atomic number  50.
 Defaulting to unpruned grid for atomic number  50.
 Defaulting to unpruned grid for atomic number  50.
 Defaulting to unpruned grid for atomic number  50.
 Defaulting to unpruned grid for atomic number  50.
 Defaulting to unpruned grid for atomic number  50.
 Defaulting to unpruned grid for atomic number  50.
 Defaulting to unpruned grid for atomic number  50.
 Defaulting to unpruned grid for atomic number  50.
 Defaulting to unpruned grid for atomic number  50.
 Defaulting to unpruned grid for atomic number  50.
 Defaulting to unpruned grid for atomic number  50.
 Defaulting to unpruned grid for atomic number  50.
 Defaulting to unpruned grid for atomic number  50.
 Defaulting to unpruned grid for atomic number  50.
 Defaulting to unpruned grid for atomic number  50.
 Defaulting to unpruned grid for atomic number  50.
 FoFCou: FMM=F IPFlag=           0 FMFlag=      100000 FMFlg1=           0
         NFxFlg=           0 DoJE=T BraDBF=F KetDBF=T FulRan=T
         Omega=  0.000000  0.000000  1.000000  0.000000  0.000000 ICntrl=     500 IOpCl=  0
         NMat0=    1 NMatS0=    1 NMatT0=    0 NMatD0=    1 NMtDS0=    0 NMtDT0=    0
         I1Cent=           4 NGrid=           0.
 Petite list used in FoFCou.
 Requested convergence on RMS density matrix=1.00D-08 within 128 cycles.
 Requested convergence on MAX density matrix=1.00D-06.
 Requested convergence on             energy=1.00D-06.
 No special actions if energy rises.
 Keep R1 ints in memory in canonical form, NReq=2397822.
 SCF Done:  E(RHF) =  -196.781700662     A.U. after   13 cycles
             Convg  =    0.4487D-08             -V/T =  2.0707
   1 Symmetry operations used in ECPInt.
 ECPInt:  NShTT=     630 NPrTT=    3262 LenC2=     622 LenP2D=    2684.
 LDataN:  DoStor=T MaxTD1= 5 Len=  102
 Calling FoFJK, ICntrl=      2127 FMM=F ISym2X=0 I1Cent= 0 IOpClX= 0 NMat=1 NMatS=1 NMatT=0.
 ***** Axes restored to original set *****
 -------------------------------------------------------------------
 Center     Atomic                   Forces (Hartrees/Bohr)
 Number     Number              X              Y              Z
 -------------------------------------------------------------------
      1        6           0.006034809    0.020642023    0.000752475
      2        6           0.004919803   -0.023813756   -0.004587120
      3        1           0.000638112    0.003850953   -0.005633901
      4        1          -0.004308875   -0.001244080    0.002607756
      5        1           0.001779907   -0.002100393    0.002492542
      6       50           0.005076824    0.007580094    0.014542165
      7       50           0.000695823   -0.010805606   -0.010956365
      8        9          -0.002666562    0.003018874    0.000012709
      9        1          -0.000639788   -0.005396568    0.000074195
     10       35          -0.011530052    0.008268460    0.000695544
 -------------------------------------------------------------------
 Cartesian Forces:  Max     0.023813756 RMS     0.008047056

 GradGradGradGradGradGradGradGradGradGradGradGradGradGradGradGradGradGrad
 Berny optimization.
 Using GEDIIS/GDIIS optimizer.
 Internal  Forces:  Max     0.018357315 RMS     0.005716116
 Search for a local minimum.
 Step number   4 out of a maximum of   43
 All quantities printed in internal units (Hartrees-Bohrs-Radians)
 Mixed Optimization -- RFO/linear search
 Update second derivatives using D2CorX and points    3    4
 DE= -6.39D-03 DEPred=-6.18D-03 R= 1.03D+00
 SS=  1.41D+00  RLast= 5.58D-01 DXNew= 8.4853D-01 1.6727D+00
 Trust test= 1.03D+00 RLast= 5.58D-01 DXMaxT set to 8.49D-01
 Use linear search instead of GDIIS.
     Eigenvalues ---    0.00230   0.00302   0.01034   0.01527   0.02329
     Eigenvalues ---    0.02877   0.02931   0.09784   0.13039   0.13188
     Eigenvalues ---    0.13276   0.13986   0.14209   0.15930   0.16218
     Eigenvalues ---    0.16460   0.20028   0.22192   0.22885   0.24744
     Eigenvalues ---    0.25953   0.37291   0.52566   0.617881000.00000
     Eigenvalues --- 1000.000001000.000001000.000001000.000001000.00000
     Eigenvalues --- 1000.000001000.000001000.00000
 RFO step:  Lambda=-6.24438744D-03 EMin= 2.30308993D-03
 Quartic linear search produced a step of  0.44748.
 Iteration  1 RMS(Cart)=  0.07772839 RMS(Int)=  0.01898964
 Iteration  2 RMS(Cart)=  0.02286970 RMS(Int)=  0.00841729
 Iteration  3 RMS(Cart)=  0.00072761 RMS(Int)=  0.00840685
 Iteration  4 RMS(Cart)=  0.00001160 RMS(Int)=  0.00840684
 Iteration  5 RMS(Cart)=  0.00000024 RMS(Int)=  0.00840684
 Variable       Old X    -DE/DX   Delta X   Delta X   Delta X     New X
                                 (Linear)    (Quad)   (Total)
    R1        2.47701   0.01836  -0.00872   0.02449   0.01577   2.49278
    R2        2.61748   0.00400   0.01537   0.01876   0.03412   2.65160
    R3        2.02754  -0.00300   0.00018  -0.00726  -0.00708   2.02045
    R4        4.05807  -0.00255   0.01528  -0.00085   0.01443   4.07250
    R5        3.81590  -0.01415   0.03385  -0.04485  -0.01100   3.80491
    R6        3.18846   0.00419   0.00016   0.03127   0.03142   3.21989
    R7        3.20000   0.00490   0.00714   0.03652   0.04366   3.24366
    R8        3.19813   0.00362   0.00535   0.02710   0.03246   3.23059
    R9        4.93154   0.01507   0.03218   0.13902   0.17120   5.10274
    A1        2.06272   0.00369  -0.01665   0.00463  -0.01201   2.05071
    A2        2.30220  -0.00642   0.03591  -0.01074   0.02517   2.32736
    A3        1.91824   0.00274  -0.01926   0.00608  -0.01318   1.90506
    A4        2.18011   0.00474   0.00525   0.02114   0.02630   2.20642
    A5        2.01643   0.00004  -0.01156  -0.00841  -0.02004   1.99639
    A6        2.08498  -0.00478   0.00572  -0.01256  -0.00693   2.07805
    A7        1.91502  -0.00498  -0.01651  -0.04756  -0.08774   1.82728
    A8        2.06594  -0.00002  -0.03261  -0.03572  -0.08627   1.97967
    A9        2.10699   0.00142  -0.01505  -0.01095  -0.05186   2.05513
   A10        1.88708  -0.00064  -0.02724  -0.05005  -0.09275   1.79433
   A11        1.93361  -0.00136  -0.03658  -0.03779  -0.08191   1.85170
   A12        2.02790  -0.00142  -0.02087  -0.02417  -0.05134   1.97655
    D1       -0.03630  -0.00042  -0.01318   0.00416  -0.00893  -0.04524
    D2       -3.11546  -0.00022   0.00180   0.00147   0.00318  -3.11228
    D3        3.09749  -0.00037  -0.01280  -0.00084  -0.01355   3.08394
    D4        0.01833  -0.00016   0.00218  -0.00353  -0.00144   0.01690
    D5        0.48162   0.00222   0.06338   0.06548   0.12192   0.60354
    D6        2.99720  -0.00234  -0.06789  -0.06988  -0.13065   2.86655
    D7       -2.72468   0.00218   0.04759   0.06847   0.10894  -2.61574
    D8       -0.20910  -0.00238  -0.08368  -0.06689  -0.14363  -0.35273
    D9        3.02432   0.00146   0.05198  -0.01433   0.03966   3.06398
   D10        0.86219   0.00460   0.15248   0.10502   0.24653   1.10873
   D11       -0.81384  -0.00602  -0.09492  -0.17974  -0.26369  -1.07753
   D12       -2.97597  -0.00288   0.00558  -0.06039  -0.05682  -3.03278
         Item               Value     Threshold  Converged?
 Maximum Force            0.018357     0.000450     NO 
 RMS     Force            0.005716     0.000300     NO 
 Maximum Displacement     0.325573     0.001800     NO 
 RMS     Displacement     0.088434     0.001200     NO 
 Predicted change in Energy=-5.343945D-03
 GradGradGradGradGradGradGradGradGradGradGradGradGradGradGradGradGradGrad

                          Input orientation:                          
 ---------------------------------------------------------------------
 Center     Atomic      Atomic             Coordinates (Angstroms)
 Number     Number       Type             X           Y           Z
 ---------------------------------------------------------------------
      1          6           0        2.293971    2.920674   -0.021394
      2          6           0        1.902061    1.661130   -0.015360
      3          1           0       -1.087292    2.123755   -0.525647
      4          1           0       -2.068896   -2.029608   -0.099915
      5          1           0        0.457015   -2.721154    0.458064
      6         50           0       -0.116544    0.950506    0.238802
      7         50           0       -0.447600   -1.627109   -0.494462
      8          9           0        1.303906    3.907794    0.097970
      9          1           0        3.251575    3.391008   -0.091555
     10         35           0        3.401781    0.323295   -0.138230
 ---------------------------------------------------------------------
                    Distance matrix (angstroms):
                    1          2          3          4          5
     1  C    0.000000
     2  C    1.319121   0.000000
     3  H    3.510312   3.067677   0.000000
     4  H    6.598944   5.421918   4.288965   0.000000
     5  H    5.952690   4.638610   5.179355   2.677649   0.000000
     6  Sn   3.124075   2.155075   1.703892   3.578755   3.722652
     7  Sn   5.331260   4.069761   3.805149   1.716471   1.709553
     8  F    1.403169   2.327688   3.047872   6.831376   6.692522
     9  H    1.069178   2.195329   4.540939   7.595429   6.743157
    10  Br   2.826176   2.013470   4.852167   5.955328   4.277369
                    6          7          8          9         10
     6  Sn   0.000000
     7  Sn   2.700254   0.000000
     8  F    3.283757   5.835572   0.000000
     9  H    4.172458   6.247217   2.023957   0.000000
    10  Br   3.593627   4.329978   4.159988   3.071743   0.000000
 Stoichiometry    C2H4BrFSn2
 Framework group  C1[X(C2H4BrFSn2)]
 Deg. of freedom    24
 Full point group                 C1      NOp   1
 Largest Abelian subgroup         C1      NOp   1
 Largest concise Abelian subgroup C1      NOp   1
                         Standard orientation:                         
 ---------------------------------------------------------------------
 Center     Atomic      Atomic             Coordinates (Angstroms)
 Number     Number       Type             X           Y           Z
 ---------------------------------------------------------------------
      1          6           0       -2.950972   -0.747825   -0.260956
      2          6           0       -1.776824   -0.174650   -0.079500
      3          1           0        0.001497   -2.577857   -0.767116
      4          1           0        3.624587   -0.517218    0.243924
      5          1           0        2.327089    1.701166    0.995637
      6         50           0        0.108107   -1.180636    0.202240
      7         50           0        2.247192    0.430298   -0.145012
      8          9           0       -2.984196   -2.148905   -0.329901
      9          1           0       -3.944925   -0.367846   -0.364953
     10         35           0       -1.844248    1.832962    0.058370
 ---------------------------------------------------------------------
 Rotational constants (GHZ):      0.8895526      0.4134331      0.2861276
 Standard basis: LANL2DZ (5D, 7F)
 There are    59 symmetry adapted basis functions of A   symmetry.
 Integral buffers will be    131072 words long.
 Raffenetti 1 integral format.
 Two-electron integral symmetry is turned on.
    59 basis functions,   127 primitive gaussians,    59 cartesian basis functions
    20 alpha electrons       20 beta electrons
       nuclear repulsion energy       133.5933576314 Hartrees.
 NAtoms=   10 NActive=   10 NUniq=   10 SFac= 7.50D-01 NAtFMM=   80 NAOKFM=F Big=F
 One-electron integrals computed using PRISM.
   1 Symmetry operations used in ECPInt.
 ECPInt:  NShTT=     630 NPrTT=    3262 LenC2=     622 LenP2D=    2685.
 LDataN:  DoStor=T MaxTD1= 4 Len=   56
 NBasis=    59 RedAO= T  NBF=    59
 NBsUse=    59 1.00D-06 NBFU=    59
 Initial guess read from the read-write file.
 B after Tr=     0.000000    0.000000    0.000000
         Rot=    1.000000    0.000000    0.000000    0.000000 Ang=   0.00 deg.
 Initial guess orbital symmetries:
       Occupied  (A) (A) (A) (A) (A) (A) (A) (A) (A) (A) (A) (A)
                 (A) (A) (A) (A) (A) (A) (A) (A)
       Virtual   (A) (A) (A) (A) (A) (A) (A) (A) (A) (A) (A) (A)
                 (A) (A) (A) (A) (A) (A) (A) (A) (A) (A) (A) (A)
                 (A) (A) (A) (A) (A) (A) (A) (A) (A) (A) (A) (A)
                 (A) (A) (A)
 Harris functional with IExCor=  205 diagonalized for initial guess.
 ExpMin= 6.30D-02 ExpMax= 1.00D+04 ExpMxC= 3.50D+02 IAcc=2 IRadAn=         0 AccDes= 0.00D+00
 HarFok:  IExCor=  205 AccDes= 0.00D+00 IRadAn=         0 IDoV= 1
 ScaDFX=  1.000000  1.000000  1.000000  1.000000
 Defaulting to unpruned grid for atomic number  50.
 Defaulting to unpruned grid for atomic number  50.
 Defaulting to unpruned grid for atomic number  50.
 Defaulting to unpruned grid for atomic number  50.
 Defaulting to unpruned grid for atomic number  50.
 Defaulting to unpruned grid for atomic number  50.
 Defaulting to unpruned grid for atomic number  50.
 Defaulting to unpruned grid for atomic number  50.
 Defaulting to unpruned grid for atomic number  50.
 Defaulting to unpruned grid for atomic number  50.
 Defaulting to unpruned grid for atomic number  50.
 Defaulting to unpruned grid for atomic number  50.
 Defaulting to unpruned grid for atomic number  50.
 Defaulting to unpruned grid for atomic number  50.
 Defaulting to unpruned grid for atomic number  50.
 Defaulting to unpruned grid for atomic number  50.
 Defaulting to unpruned grid for atomic number  50.
 Defaulting to unpruned grid for atomic number  50.
 Defaulting to unpruned grid for atomic number  50.
 Defaulting to unpruned grid for atomic number  50.
 Defaulting to unpruned grid for atomic number  50.
 Defaulting to unpruned grid for atomic number  50.
 Defaulting to unpruned grid for atomic number  50.
 Defaulting to unpruned grid for atomic number  50.
 FoFCou: FMM=F IPFlag=           0 FMFlag=      100000 FMFlg1=           0
         NFxFlg=           0 DoJE=T BraDBF=F KetDBF=T FulRan=T
         Omega=  0.000000  0.000000  1.000000  0.000000  0.000000 ICntrl=     500 IOpCl=  0
         NMat0=    1 NMatS0=    1 NMatT0=    0 NMatD0=    1 NMtDS0=    0 NMtDT0=    0
         I1Cent=           4 NGrid=           0.
 Petite list used in FoFCou.
 Requested convergence on RMS density matrix=1.00D-08 within 128 cycles.
 Requested convergence on MAX density matrix=1.00D-06.
 Requested convergence on             energy=1.00D-06.
 No special actions if energy rises.
 Keep R1 ints in memory in canonical form, NReq=2397822.
 SCF Done:  E(RHF) =  -196.786865388     A.U. after   14 cycles
             Convg  =    0.6664D-08             -V/T =  2.0710
   1 Symmetry operations used in ECPInt.
 ECPInt:  NShTT=     630 NPrTT=    3262 LenC2=     622 LenP2D=    2685.
 LDataN:  DoStor=T MaxTD1= 5 Len=  102
 Calling FoFJK, ICntrl=      2127 FMM=F ISym2X=0 I1Cent= 0 IOpClX= 0 NMat=1 NMatS=1 NMatT=0.
 ***** Axes restored to original set *****
 -------------------------------------------------------------------
 Center     Atomic                   Forces (Hartrees/Bohr)
 Number     Number              X              Y              Z
 -------------------------------------------------------------------
      1        6          -0.010749151    0.017093843    0.001150454
      2        6           0.010908466   -0.009782994   -0.001045976
      3        1           0.000519002    0.002449996   -0.002195008
      4        1          -0.001757266   -0.001613239   -0.000122148
      5        1           0.001552235   -0.001616731    0.000143274
      6       50           0.003366202    0.004105950    0.004422664
      7       50          -0.002402593   -0.006240207   -0.002154010
      8        9           0.004830555   -0.004412619   -0.000432455
      9        1           0.002225164   -0.005332351   -0.000525804
     10       35          -0.008492615    0.005348352    0.000759009
 -------------------------------------------------------------------
 Cartesian Forces:  Max     0.017093843 RMS     0.005543057

 GradGradGradGradGradGradGradGradGradGradGradGradGradGradGradGradGradGrad
 Berny optimization.
 Using GEDIIS/GDIIS optimizer.
 Internal  Forces:  Max     0.009938955 RMS     0.003797406
 Search for a local minimum.
 Step number   5 out of a maximum of   43
 All quantities printed in internal units (Hartrees-Bohrs-Radians)
 Mixed Optimization -- RFO/linear search
 Update second derivatives using D2CorX and points    4    5
 DE= -5.16D-03 DEPred=-5.34D-03 R= 9.66D-01
 SS=  1.41D+00  RLast= 5.22D-01 DXNew= 1.4270D+00 1.5667D+00
 Trust test= 9.66D-01 RLast= 5.22D-01 DXMaxT set to 1.43D+00
 Use linear search instead of GDIIS.
     Eigenvalues ---    0.00230   0.00306   0.01527   0.02095   0.02878
     Eigenvalues ---    0.02931   0.03462   0.09079   0.12462   0.13054
     Eigenvalues ---    0.13204   0.13280   0.13333   0.14837   0.16028
     Eigenvalues ---    0.16332   0.17599   0.21790   0.22703   0.24806
     Eigenvalues ---    0.24878   0.37251   0.53632   0.578541000.00000
     Eigenvalues --- 1000.000001000.000001000.000001000.000001000.00000
     Eigenvalues --- 1000.000001000.000001000.00000
 RFO step:  Lambda=-3.48624374D-03 EMin= 2.30151946D-03
 Quartic linear search produced a step of  0.15807.
 Iteration  1 RMS(Cart)=  0.08277459 RMS(Int)=  0.00259067
 Iteration  2 RMS(Cart)=  0.00292132 RMS(Int)=  0.00137212
 Iteration  3 RMS(Cart)=  0.00000421 RMS(Int)=  0.00137211
 Iteration  4 RMS(Cart)=  0.00000001 RMS(Int)=  0.00137211
 Variable       Old X    -DE/DX   Delta X   Delta X   Delta X     New X
                                 (Linear)    (Quad)   (Total)
    R1        2.49278   0.00592   0.00249   0.01438   0.01687   2.50965
    R2        2.65160  -0.00655   0.00539  -0.01747  -0.01208   2.63952
    R3        2.02045  -0.00032  -0.00112  -0.00146  -0.00258   2.01787
    R4        4.07250  -0.00022   0.00228  -0.00916  -0.00688   4.06562
    R5        3.80491  -0.00993  -0.00174  -0.07733  -0.07906   3.72584
    R6        3.21989   0.00238   0.00497   0.01759   0.02255   3.24244
    R7        3.24366   0.00201   0.00690   0.01305   0.01996   3.26362
    R8        3.23059   0.00194   0.00513   0.01364   0.01877   3.24935
    R9        5.10274   0.00994   0.02706   0.07911   0.10617   5.20891
    A1        2.05071   0.00439  -0.00190   0.02654   0.02465   2.07535
    A2        2.32736  -0.00804   0.00398  -0.06109  -0.05711   2.27026
    A3        1.90506   0.00365  -0.00208   0.03454   0.03245   1.93751
    A4        2.20642   0.00096   0.00416   0.00369   0.00784   2.21426
    A5        1.99639   0.00270  -0.00317   0.01556   0.01238   2.00877
    A6        2.07805  -0.00364  -0.00110  -0.01889  -0.01999   2.05806
    A7        1.82728  -0.00432  -0.01387  -0.03650  -0.05369   1.77359
    A8        1.97967   0.00459  -0.01364   0.02066   0.00466   1.98433
    A9        2.05513  -0.00003  -0.00820  -0.00652  -0.01859   2.03653
   A10        1.79433  -0.00067  -0.01466   0.03186   0.01391   1.80824
   A11        1.85170   0.00383  -0.01295   0.06314   0.04841   1.90012
   A12        1.97655   0.00166  -0.00812   0.04015   0.03045   2.00701
    D1       -0.04524   0.00021  -0.00141   0.00588   0.00449  -0.04075
    D2       -3.11228   0.00015   0.00050   0.00096   0.00144  -3.11084
    D3        3.08394   0.00018  -0.00214   0.00586   0.00374   3.08768
    D4        0.01690   0.00012  -0.00023   0.00094   0.00069   0.01758
    D5        0.60354  -0.00014   0.01927  -0.02561  -0.00750   0.59604
    D6        2.86655  -0.00032  -0.02065  -0.04807  -0.06752   2.79904
    D7       -2.61574   0.00017   0.01722  -0.01911  -0.00309  -2.61883
    D8       -0.35273  -0.00002  -0.02270  -0.04157  -0.06311  -0.41584
    D9        3.06398   0.00151   0.00627   0.09259   0.09955  -3.11965
   D10        1.10873  -0.00073   0.03897  -0.00148   0.03556   1.14429
   D11       -1.07753  -0.00048  -0.04168   0.05403   0.01427  -1.06325
   D12       -3.03278  -0.00271  -0.00898  -0.04004  -0.04972  -3.08250
         Item               Value     Threshold  Converged?
 Maximum Force            0.009939     0.000450     NO 
 RMS     Force            0.003797     0.000300     NO 
 Maximum Displacement     0.183122     0.001800     NO 
 RMS     Displacement     0.082040     0.001200     NO 
 Predicted change in Energy=-1.962976D-03
 GradGradGradGradGradGradGradGradGradGradGradGradGradGradGradGradGradGrad

                          Input orientation:                          
 ---------------------------------------------------------------------
 Center     Atomic      Atomic             Coordinates (Angstroms)
 Number     Number       Type             X           Y           Z
 ---------------------------------------------------------------------
      1          6           0        2.288842    2.959546   -0.048952
      2          6           0        1.904775    1.689794    0.013794
      3          1           0       -1.029124    2.149892   -0.476385
      4          1           0       -2.104852   -2.097038   -0.187672
      5          1           0        0.430767   -2.818058    0.434433
      6         50           0       -0.093917    0.960022    0.332107
      7         50           0       -0.458943   -1.653356   -0.464739
      8          9           0        1.322596    3.963060    0.052602
      9          1           0        3.265038    3.377813   -0.159926
     10         35           0        3.364797    0.368617   -0.086987
 ---------------------------------------------------------------------
                    Distance matrix (angstroms):
                    1          2          3          4          5
     1  C    0.000000
     2  C    1.328049   0.000000
     3  H    3.441967   3.009938   0.000000
     4  H    6.700212   5.518858   4.390553   0.000000
     5  H    6.088253   4.761341   5.257509   2.708551   0.000000
     6  Sn   3.133823   2.151432   1.715827   3.695896   3.815711
     7  Sn   5.385357   4.122234   3.845769   1.727031   1.719484
     8  F    1.396776   2.346950   3.016288   6.966342   6.850162
     9  H    1.067811   2.174834   4.477473   7.668800   6.839238
    10  Br   2.805715   1.971631   4.757217   6.000554   4.362947
                    6          7          8          9         10
     6  Sn   0.000000
     7  Sn   2.756438   0.000000
     8  F    3.332097   5.914867   0.000000
     9  H    4.167780   6.266866   2.039795   0.000000
    10  Br   3.533851   4.341896   4.136434   3.011733   0.000000
 Stoichiometry    C2H4BrFSn2
 Framework group  C1[X(C2H4BrFSn2)]
 Deg. of freedom    24
 Full point group                 C1      NOp   1
 Largest Abelian subgroup         C1      NOp   1
 Largest concise Abelian subgroup C1      NOp   1
                         Standard orientation:                         
[...]
     6  50     0.00   0.00   0.00     0.00  -0.01   0.00     0.00   0.00   0.00
     7  50     0.00  -0.01   0.00     0.00   0.00   0.00     0.00   0.00   0.00
     8   9     0.00   0.00   0.00     0.00   0.00   0.00     0.00   0.00   0.00
     9   1     0.00   0.00   0.00     0.00   0.00   0.00    -0.87  -0.44  -0.19
    10  35     0.00   0.00   0.00     0.00   0.00   0.00     0.00   0.00   0.00

 -------------------
 - Thermochemistry -
 -------------------
 Temperature   298.150 Kelvin.  Pressure   1.00000 Atm.
 Atom     1 has atomic number  6 and mass  12.00000
 Atom     2 has atomic number  6 and mass  12.00000
 Atom     3 has atomic number  1 and mass   1.00783
 Atom     4 has atomic number  1 and mass   1.00783
 Atom     5 has atomic number  1 and mass   1.00783
 Atom     6 has atomic number 50 and mass 117.90180
 Atom     7 has atomic number 50 and mass 117.90180
 Atom     8 has atomic number  9 and mass  18.99840
 Atom     9 has atomic number  1 and mass   1.00783
 Atom    10 has atomic number 35 and mass  78.91834
 Molecular mass:   361.75164 amu.
 Principal axes and moments of inertia in atomic units:
                           1         2         3
     Eigenvalues --  2041.588084535.601856348.93194
           X            0.99978  -0.01707   0.01206
           Y            0.01727   0.99971  -0.01687
           Z           -0.01177   0.01707   0.99978
 This molecule is an asymmetric top.
 Rotational symmetry number  1.
 Warning -- assumption of classical behavior for rotation
           may cause significant error
 Rotational temperatures (Kelvin)      0.04242     0.01910     0.01364
 Rotational constants (GHZ):           0.88399     0.39791     0.28426
 Zero-point vibrational energy     120682.8 (Joules/Mol)
                                   28.84388 (Kcal/Mol)
 Warning -- explicit consideration of  13 degrees of freedom as
           vibrations may cause significant error
 Vibrational temperatures:     27.04    52.09   151.41   183.65   231.34
          (Kelvin)            270.26   381.09   412.02   481.29   524.92
                              546.28   707.82   735.55   938.61  1198.40
                             1202.06  1455.29  1634.74  2049.97  2579.03
                             2748.81  2765.03  2779.43  4973.45
 
 Zero-point correction=                           0.045966 (Hartree/Particle)
 Thermal correction to Energy=                    0.055919
 Thermal correction to Enthalpy=                  0.056863
 Thermal correction to Gibbs Free Energy=         0.005527
 Sum of electronic and zero-point Energies=           -196.743395
 Sum of electronic and thermal Energies=              -196.733442
 Sum of electronic and thermal Enthalpies=            -196.732498
 Sum of electronic and thermal Free Energies=         -196.783834
 
                     E (Thermal)             CV                S
                      KCal/Mol        Cal/Mol-Kelvin    Cal/Mol-Kelvin
 Total                   35.090             31.043            108.045
 Electronic               0.000              0.000              0.000
 Translational            0.889              2.981             43.551
 Rotational               0.889              2.981             32.442
 Vibrational             33.312             25.082             32.053
 Vibration     1          0.593              1.986              6.758
 Vibration     2          0.594              1.982              5.457
 Vibration     3          0.605              1.945              3.355
 Vibration     4          0.611              1.926              2.981
 Vibration     5          0.622              1.890              2.540
 Vibration     6          0.633              1.857              2.249
 Vibration     7          0.671              1.737              1.629
 Vibration     8          0.684              1.699              1.495
 Vibration     9          0.716              1.607              1.238
 Vibration    10          0.738              1.545              1.101
 Vibration    11          0.750              1.513              1.040
 Vibration    12          0.848              1.268              0.679
 Vibration    13          0.866              1.225              0.631
                       Q            Log10(Q)             Ln(Q)
 Total Bot       0.286803D-02         -2.542416         -5.854130
 Total V=0       0.398357D+19         18.600273         42.828711
 Vib (Bot)       0.386380D-17        -17.412986        -40.094881
 Vib (Bot)    1  0.110218D+02          1.042252          2.399874
 Vib (Bot)    2  0.571693D+01          0.757163          1.743431
 Vib (Bot)    3  0.194815D+01          0.289622          0.666878
 Vib (Bot)    4  0.159811D+01          0.203607          0.468822
 Vib (Bot)    5  0.125703D+01          0.099346          0.228752
 Vib (Bot)    6  0.106629D+01          0.027877          0.064190
 Vib (Bot)    7  0.731538D+00         -0.135763         -0.312606
 Vib (Bot)    8  0.669097D+00         -0.174511         -0.401826
 Vib (Bot)    9  0.556999D+00         -0.254145         -0.585191
 Vib (Bot)   10  0.500767D+00         -0.300364         -0.691615
 Vib (Bot)   11  0.476311D+00         -0.322110         -0.741685
 Vib (Bot)   12  0.336454D+00         -0.473074         -1.089294
 Vib (Bot)   13  0.318263D+00         -0.497214         -1.144878
 Vib (V=0)       0.536665D+04          3.729703          8.587960
 Vib (V=0)    1  0.115331D+02          1.061947          2.445223
 Vib (V=0)    2  0.623875D+01          0.795098          1.830780
 Vib (V=0)    3  0.251129D+01          0.399896          0.920795
 Vib (V=0)    4  0.217450D+01          0.337360          0.776800
 Vib (V=0)    5  0.185282D+01          0.267833          0.616709
 Vib (V=0)    6  0.167770D+01          0.224715          0.517426
 Vib (V=0)    7  0.138609D+01          0.141790          0.326484
 Vib (V=0)    8  0.133528D+01          0.125572          0.289140
 Vib (V=0)    9  0.124850D+01          0.096388          0.221941
 Vib (V=0)   10  0.120765D+01          0.081941          0.188676
 Vib (V=0)   11  0.119056D+01          0.075751          0.174423
 Vib (V=0)   12  0.110266D+01          0.042442          0.097727
 Vib (V=0)   13  0.109270D+01          0.038500          0.088650
 Electronic      0.100000D+01          0.000000          0.000000
 Translational   0.270440D+09          8.432071         19.415561
 Rotational      0.274472D+07          6.438498         14.825190
 ***** Axes restored to original set *****
 -------------------------------------------------------------------
 Center     Atomic                   Forces (Hartrees/Bohr)
 Number     Number              X              Y              Z
 -------------------------------------------------------------------
      1        6          -0.000047305    0.000010917    0.000014849
      2        6           0.000042273   -0.000030911   -0.000013453
      3        1          -0.000006309   -0.000008762    0.000006231
      4        1           0.000001279    0.000004684    0.000000282
      5        1          -0.000009754   -0.000008700   -0.000009556
      6       50          -0.000039804    0.000066387   -0.000001367
      7       50           0.000024601   -0.000010661    0.000007173
      8        9           0.000023880   -0.000041804    0.000001472
      9        1           0.000000832    0.000010191   -0.000005794
     10       35           0.000010306    0.000008658    0.000000163
 -------------------------------------------------------------------
 Cartesian Forces:  Max     0.000066387 RMS     0.000022616

 GradGradGradGradGradGradGradGradGradGradGradGradGradGradGradGradGradGrad
 Berny optimization.
 Internal  Forces:  Max     0.000074743 RMS     0.000024753
 Search for a local minimum.
 Step number   1 out of a maximum of    2
 All quantities printed in internal units (Hartrees-Bohrs-Radians)
 Second derivative matrix not updated -- analytic derivatives used.
     Eigenvalues ---    0.00153   0.00691   0.00962   0.01732   0.02828
     Eigenvalues ---    0.03203   0.04657   0.06285   0.06393   0.06706
     Eigenvalues ---    0.08166   0.09611   0.12029   0.12992   0.13689
     Eigenvalues ---    0.13899   0.14090   0.14220   0.16380   0.22301
     Eigenvalues ---    0.24283   0.40945   0.42028   0.720331000.00000
     Eigenvalues --- 1000.000001000.000001000.000001000.000001000.00000
     Eigenvalues --- 1000.000001000.000001000.00000
 Angle between quadratic step and forces=  66.28 degrees.
 Linear search not attempted -- first point.
 Iteration  1 RMS(Cart)=  0.00120729 RMS(Int)=  0.00000105
 Iteration  2 RMS(Cart)=  0.00000144 RMS(Int)=  0.00000025
 Iteration  3 RMS(Cart)=  0.00000000 RMS(Int)=  0.00000025
 Variable       Old X    -DE/DX   Delta X   Delta X   Delta X     New X
                                 (Linear)    (Quad)   (Total)
    R1        2.50388  -0.00003   0.00000  -0.00004  -0.00004   2.50384
    R2        2.61405  -0.00005   0.00000   0.00000   0.00000   2.61405
    R3        2.02218   0.00001   0.00000   0.00000   0.00000   2.02219
    R4        4.08504   0.00001   0.00000   0.00032   0.00032   4.08536
    R5        3.74456   0.00000   0.00000  -0.00023  -0.00023   3.74433
    R6        3.24802  -0.00001   0.00000  -0.00003  -0.00003   3.24800
    R7        3.26008   0.00000   0.00000  -0.00003  -0.00003   3.26006
    R8        3.25186   0.00000   0.00000  -0.00007  -0.00007   3.25179
    R9        5.28871   0.00001   0.00000   0.00025   0.00025   5.28896
    A1        2.09009  -0.00003   0.00000  -0.00022  -0.00022   2.08987
    A2        2.25137   0.00002   0.00000   0.00023   0.00023   2.25160
    A3        1.94169   0.00000   0.00000  -0.00001  -0.00001   1.94167
    A4        2.22144  -0.00007   0.00000  -0.00090  -0.00090   2.22054
    A5        2.01469   0.00001   0.00000   0.00017   0.00017   2.01486
    A6        2.04587   0.00006   0.00000   0.00071   0.00071   2.04658
    A7        1.76552   0.00003   0.00000   0.00020   0.00020   1.76572
    A8        1.95888  -0.00005   0.00000  -0.00102  -0.00102   1.95786
    A9        1.99322   0.00000   0.00000  -0.00082  -0.00082   1.99240
   A10        1.77416  -0.00001   0.00000  -0.00008  -0.00008   1.77408
   A11        1.92539  -0.00002   0.00000   0.00029   0.00029   1.92567
   A12        2.00124   0.00005   0.00000   0.00146   0.00146   2.00270
    D1       -0.02790   0.00000   0.00000  -0.00014  -0.00014  -0.02804
    D2       -3.11519   0.00000   0.00000   0.00019   0.00019  -3.11500
    D3        3.10319   0.00000   0.00000  -0.00006  -0.00006   3.10313
    D4        0.01590   0.00000   0.00000   0.00027   0.00027   0.01618
    D5        0.50524   0.00000   0.00000   0.00253   0.00253   0.50777
    D6        2.63708   0.00000   0.00000   0.00118   0.00118   2.63826
    D7       -2.69150   0.00000   0.00000   0.00217   0.00217  -2.68933
    D8       -0.55966   0.00000   0.00000   0.00082   0.00082  -0.55883
    D9        3.07191   0.00000   0.00000   0.00112   0.00112   3.07303
   D10        1.08197   0.00000   0.00000   0.00014   0.00014   1.08211
   D11       -1.21479   0.00001   0.00000   0.00015   0.00015  -1.21464
   D12        3.07845   0.00000   0.00000  -0.00083  -0.00083   3.07762
         Item               Value     Threshold  Converged?
 Maximum Force            0.000075     0.000450     YES
 RMS     Force            0.000025     0.000300     YES
 Maximum Displacement     0.003237     0.001800     NO 
 RMS     Displacement     0.001207     0.001200     NO 
 Predicted change in Energy=-1.308672D-07
 GradGradGradGradGradGradGradGradGradGradGradGradGradGradGradGradGradGrad

 1\1\GINC-MALLOS26\Freq\RHF\LANL2DZ\C2H4Br1F1Sn2\MARLIN\24-Oct-2024\0\\
 #N Geom=AllCheck Guess=TCheck SCRF=Check GenChk RHF/LANL2DZ Freq\\Titl
 e Card Required\\0,1\C,2.284698811,2.9527079831,-0.0931865715\C,1.8947
 159824,1.6994359447,0.0880330586\H,-1.0365787724,2.1853379723,-0.39828
 06798\H,-2.0854365846,-2.1690627197,-0.1241083607\H,0.4843188032,-2.80
 49873683,0.2343376677\Sn,-0.11885172,0.9911649574,0.4299282605\Sn,-0.5
 011149471,-1.6132478395,-0.520560787\F,1.3459878976,3.9686603849,-0.10
 64832285\H,3.2737752651,3.3366724649,-0.2324629065\Br,3.3484642148,0.3
 536100402,0.1310566572\\Version=EM64L-G09RevA.01\State=1-A\HF=-196.789
 3611\RMSD=1.057e-09\RMSF=2.262e-05\ZeroPoint=0.0459657\Thermal=0.05591
 89\Dipole=-0.0993102,-0.1988726,-0.1018743\DipoleDeriv=0.068814,-0.706
 7623,-0.0296011,-0.0068307,1.4537152,-0.0149674,-0.0328076,-0.1428278,
 0.1227721,-0.1356401,-0.693812,0.0467,-0.6660705,-0.5018172,-0.0099513
 ,0.3128561,0.5394424,-0.2150819,-0.3613876,-0.0210984,-0.0154541,0.076
 3975,-0.2489377,0.1155154,-0.0007878,0.4503442,-0.0055916,-0.4094801,-
 0.1672835,-0.03602,-0.139389,-0.2722824,0.0792339,0.1612276,0.3917522,
 -0.0074647,-0.2456313,0.0099807,0.000752,0.0772067,-0.3625356,0.105448
 ,0.0234238,0.4572362,-0.0033125,1.2468917,0.5953897,0.0918284,0.359762
 5,0.7590918,-0.1866403,-0.2928844,-0.8721752,0.1565839,0.6799204,0.132
 2794,0.0103084,0.0380164,0.6185226,-0.1975262,-0.1884823,-0.8636722,0.
 0371356,-0.3589944,0.6857709,-0.0032817,0.1591114,-1.2174138,0.0357837
 ,0.030164,0.0727028,-0.2139316,0.0204524,0.0309763,0.017681,-0.064533,
 -0.028192,0.0255806,-0.01507,-0.038918,0.1948001,-0.5049449,0.1345593,
 -0.0829129,0.1663287,-0.2001508,0.0475236,0.0023606,0.0061153,-0.06590
 94\Polar=110.8895056,14.4691241,189.0829672,13.1448239,43.8665677,73.6
 792667\HyperPolar=-219.8488674,-37.6113423,-7.7727538,36.671134,6.2626
 217,-45.6931041,-93.5781877,-51.5939117,-30.501362,-6.5852432\PG=C01 [
 X(C2H4Br1F1Sn2)]\NImag=0\\0.71098046,0.17802802,0.89783778,-0.07636700
 ,-0.10194606,0.16858266,-0.16167800,-0.15875202,0.02705661,0.33412149,
 -0.19094588,-0.57974513,0.07737257,0.14891023,0.72987928,0.03437665,0.
 07425273,-0.07362572,-0.04405938,-0.09427018,0.08797597,-0.00005359,0.
 00114029,0.00034417,-0.00442530,0.00696531,-0.00620598,0.05097730,0.00
 322374,-0.00267484,0.00017355,-0.00072632,0.00379017,-0.00181678,-0.04
 623133,0.07568186,-0.00008609,-0.00059092,-0.00036522,0.00208204,0.000
 77317,0.00053709,0.03287880,-0.04526513,0.03568083,-0.00012718,0.00053
 152,-0.00009876,-0.00000359,0.00004293,-0.00013584,0.00012585,-0.00022
 649,0.00008338,0.11987968,-0.00086317,0.00035562,0.00017966,0.00029585
 ,-0.00187278,-0.00232360,0.00028831,-0.00071913,-0.00126289,0.03613359
 ,0.02549882,-0.00042094,-0.00072996,0.00026575,-0.00011880,-0.00151279
 ,0.00006880,0.00020718,-0.00124468,-0.00162550,-0.02475648,-0.01159772
 ,0.01273014,0.00030218,0.00002805,-0.00002575,-0.00010935,0.00053458,-
 0.00033894,0.00014766,-0.00031207,-0.00073815,-0.00697121,0.00787259,-
 0.00543814,0.05729496,-0.00015121,0.00005535,0.00009206,0.00024796,-0.
 00071743,-0.00130898,-0.00024199,-0.00149674,-0.00221713,-0.00223454,0
 .00340686,-0.00057161,-0.05032910,0.07230969,0.00079331,-0.00095554,0.
 00032616,0.00013655,0.00030826,-0.00234333,-0.00058268,-0.00208428,-0.
 00017914,0.00265420,-0.00115198,0.00093243,0.03209354,-0.04025723,0.02
 998212,0.00354148,-0.00782684,0.00157346,-0.10501188,-0.03375696,0.020
 24243,-0.04362294,0.04715617,-0.03615805,-0.00036733,-0.00378500,-0.00
 281673,0.00022896,0.00281794,-0.00068255,0.16553050,-0.02089302,0.0017
 9118,0.00215449,-0.03456904,-0.03564115,0.01570626,0.03901654,-0.07865
 463,0.05351684,0.00211288,0.00443178,-0.00238633,-0.00007588,0.0030762
 5,-0.00372943,0.00020554,0.16988929,0.00065167,0.00222990,0.00555206,0
 .01210052,0.00326225,-0.02248539,-0.02771786,0.04156392,-0.03724740,0.
 00171209,0.00723027,0.00163385,0.00152768,0.00839758,0.00312631,0.0176
 5036,-0.05098011,0.06185603,-0.00237388,0.00033794,0.00031339,0.000022
 58,-0.00512603,-0.00182001,0.00050802,0.00252456,0.00056431,-0.1126552
 9,-0.04028431,0.03294856,-0.05105344,0.05027026,-0.03446489,-0.0075621
 8,-0.00609278,-0.00249005,0.17288784,0.00217654,0.00008258,-0.00036088
 ,0.00069483,0.00347275,-0.00200573,0.00018100,0.00292954,-0.00399374,-
 0.03579815,-0.03062742,0.01802820,0.04268383,-0.07661858,0.04807597,-0
 .00822772,-0.05714614,-0.01211484,-0.00154572,0.15720918,0.00048702,0.
 00206622,-0.00086412,0.00087261,0.00437952,0.00329604,0.00054188,0.008
 44693,0.00243611,0.02052976,0.00875592,-0.01408352,-0.02722629,0.03569
 593,-0.03184968,0.00011337,-0.01208005,-0.01459580,0.00517259,-0.04786
 161,0.05587210,-0.18912921,0.11429451,0.00299868,0.01013928,0.00674209
 ,-0.00276501,0.00005386,-0.00383470,0.00014381,0.00020220,0.00015603,-
 0.00018926,0.00004632,-0.00017420,-0.00048344,-0.00723160,0.00383754,-
 0.00010764,0.00047249,0.00004864,0.00106269,0.20827889,0.11746258,-0.1
 9375486,0.00448025,0.03717898,-0.04313574,0.00335767,-0.00169445,0.000
 14089,-0.00015042,-0.00036625,-0.00027396,0.00027195,-0.00018316,-0.00
 009814,0.00023836,0.00589503,-0.00059622,-0.00198290,0.00027888,0.0002
 6379,-0.00038478,-0.16289966,0.24815628,0.00152009,0.00556657,-0.04215
 780,-0.00443544,0.00416152,0.00660848,-0.00040945,-0.00010948,0.000525
 99,-0.00000349,-0.00021656,-0.00001428,0.00001116,-0.00012949,-0.00024
 612,0.00002642,-0.00030306,-0.00343068,-0.00022545,-0.00004095,0.00042
 250,-0.00001025,-0.00766784,0.02212538,-0.34701301,-0.12424155,0.04270
 349,0.00230108,0.00677899,0.00065297,0.00001620,-0.00023668,0.00001455
 ,0.00002029,0.00007656,-0.00001084,-0.00000109,0.00000336,-0.00002249,
 -0.00007183,0.00088452,0.00027342,0.00013548,-0.00003304,0.00002051,-0
 .02490488,0.00213999,0.00309265,0.36750771,-0.12857280,-0.10490457,0.0
 1887074,-0.02954290,-0.00485882,0.00540176,0.00003608,0.00018243,-0.00
 003648,0.00000499,-0.00011569,-0.00023007,0.00005407,-0.00003420,0.000
 02866,0.00011546,-0.00208433,0.00022999,-0.00028013,0.00064838,0.00053
 225,0.04265088,-0.00438425,-0.00313752,0.11486332,0.11636106,0.0425183
 7,0.01788985,-0.05939863,0.00535615,0.00304834,0.01802094,0.00063119,0
 .00019638,-0.00011956,0.00003668,0.00036491,-0.00003124,0.00002656,0.0
 0019912,0.00029392,-0.00067198,-0.00062438,0.00392311,0.00031398,0.000
 13026,-0.00043575,-0.00126931,0.00045748,0.00788724,-0.04613083,-0.021
 16659,0.03429929,-0.01444925,-0.00353992,0.00150173,-0.07535632,0.0598
 5474,0.00005312,-0.00372705,-0.00133688,0.00121541,-0.00010341,0.00010
 956,0.00059544,0.00011501,-0.00020849,0.00055844,-0.00543318,0.0155737
 0,-0.00360019,-0.00038161,-0.00018021,-0.00157413,0.00207263,0.0021880
 6,0.00043377,0.00201005,0.00067103,-0.00081081,0.09525313,0.04053520,-
 0.01904310,-0.00101639,0.03626243,-0.07117117,0.00300685,0.00054022,0.
 00082046,-0.00077331,-0.00020047,-0.00008410,-0.00002699,-0.00027292,0
 .00011694,-0.00047279,-0.00259362,-0.00506602,0.00216394,-0.00008268,-
 0.00021407,0.00044966,-0.00082113,-0.00631780,0.00187682,-0.00023546,-
 0.00081002,-0.00049538,-0.07313159,0.10176888,-0.00347306,0.00221721,0
 .00168485,0.00100915,0.00247733,-0.01805288,0.00031275,0.00013956,0.00
 035680,-0.00002155,0.00002200,0.00012358,0.00010833,0.00009974,-0.0000
 4268,0.00072327,-0.00127422,0.00166792,-0.00031242,0.00014332,-0.00019
 788,0.00061973,0.00138022,0.00827928,-0.00059342,-0.00049275,-0.004439
 33,0.00162721,-0.00471241,0.01062036\\0.00004730,-0.00001092,-0.000014
 85,-0.00004227,0.00003091,0.00001345,0.00000631,0.00000876,-0.00000623
 ,-0.00000128,-0.00000468,-0.00000028,0.00000975,0.00000870,0.00000956,
 0.00003980,-0.00006639,0.00000137,-0.00002460,0.00001066,-0.00000717,-
 0.00002388,0.00004180,-0.00000147,-0.00000083,-0.00001019,0.00000579,-
 0.00001031,-0.00000866,-0.00000016\\\@


 THE TEST OF A FIRST RATE INTELLIGENCE IS THE ABILITY TO HOLD TWO OPPOSED
 IDEAS IN THE MIND AT THE SAME TIME, AND STILL RETAIN THE ABILITY TO FUNCTION.
 ONE SHOULD, FOR EXAMPLE, BE ABLE TO SEE THAT THINGS ARE HOPELESS AND YET BE
 DETERMINED TO MAKE THEM OTHERWISE.

                                                       -- F. SCOTT FITZGERALD
 Job cpu time:  0 days  0 hours  0 minutes 56.1 seconds.
 File lengths (MBytes):  RWF=      9 Int=      0 D2E=      0 Chk=      1 Scr=      1
 Normal termination of Gaussian 09 at Thu Oct 24 10:12:34 2024.
