 Entering Gaussian System, Link 0=g09
 Initial command:
 /u/local/G09/g09/l1.exe /tmp1/marlin/22680.mallos00.local/Gau-83583.inp -scrdir=/tmp1/marlin/22680.mallos00.local/
 Entering Link 1 = /u/local/G09/g09/l1.exe PID=     83585.
  
 Copyright (c) 1988,1990,1992,1993,1995,1998,2003,2009, Gaussian, Inc.
                  All Rights Reserved.
  
 This is part of the Gaussian(R) 09 program.  It is based on
 the Gaussian(R) 03 system (copyright 2003, Gaussian, Inc.),
 the Gaussian(R) 98 system (copyright 1998, Gaussian, Inc.),
 the Gaussian(R) 94 system (copyright 1995, Gaussian, Inc.),
 the Gaussian 92(TM) system (copyright 1992, Gaussian, Inc.),
 the Gaussian 90(TM) system (copyright 1990, Gaussian, Inc.),
 the Gaussian 88(TM) system (copyright 1988, Gaussian, Inc.),
 the Gaussian 86(TM) system (copyright 1986, Carnegie Mellon
 University), and the Gaussian 82(TM) system (copyright 1983,
 Carnegie Mellon University). Gaussian is a federally registered
 trademark of Gaussian, Inc.
  
 This software contains proprietary and confidential information,
 including trade secrets, belonging to Gaussian, Inc.
  
 This software is provided under written license and may be
 used, copied, transmitted, or stored only in accord with that
 written license.
  
 The following legend is applicable only to US Government
 contracts under FAR:
  
                    RESTRICTED RIGHTS LEGEND
  
 Use, reproduction and disclosure by the US Government is
 subject to restrictions as set forth in subparagraphs (a)
 and (c) of the Commercial Computer Software - Restricted
 Rights clause in FAR 52.227-19.
  
 Gaussian, Inc.
 340 Quinnipiac St., Bldg. 40, Wallingford CT 06492
  
  
 ---------------------------------------------------------------
 Warning -- This program may not be used in any manner that
 competes with the business of Gaussian, Inc. or will provide
 assistance to any competitor of Gaussian, Inc.  The licensee
 of this program is prohibited from giving any competitor of
 Gaussian, Inc. access to this program.  By using this program,
 the user acknowledges that Gaussian, Inc. is engaged in the
 business of creating and licensing software in the field of
 computational chemistry and represents and warrants to the
 licensee that it is not a competitor of Gaussian, Inc. and that
 it will not use this program in any manner prohibited above.
 ---------------------------------------------------------------
  

 Cite this work as:
 Gaussian 09, Revision A.01,
 M. J. Frisch, G. W. Trucks, H. B. Schlegel, G. E. Scuseria, 
 M. A. Robb, J. R. Cheeseman, G. Scalmani, V. Barone, B. Mennucci, 
 G. A. Petersson, H. Nakatsuji, M. Caricato, X. Li, H. P. Hratchian, 
 A. F. Izmaylov, J. Bloino, G. Zheng, J. L. Sonnenberg, M. Hada, 
 M. Ehara, K. Toyota, R. Fukuda, J. Hasegawa, M. Ishida, T. Nakajima, 
 Y. Honda, O. Kitao, H. Nakai, T. Vreven, J. A. Montgomery, Jr., 
 J. E. Peralta, F. Ogliaro, M. Bearpark, J. J. Heyd, E. Brothers, 
 K. N. Kudin, V. N. Staroverov, R. Kobayashi, J. Normand, 
 K. Raghavachari, A. Rendell, J. C. Burant, S. S. Iyengar, J. Tomasi, 
 M. Cossi, N. Rega, J. M. Millam, M. Klene, J. E. Knox, J. B. Cross, 
 V. Bakken, C. Adamo, J. Jaramillo, R. Gomperts, R. E. Stratmann, 
 O. Yazyev, A. J. Austin, R. Cammi, C. Pomelli, J. W. Ochterski, 
 R. L. Martin, K. Morokuma, V. G. Zakrzewski, G. A. Voth, 
 P. Salvador, J. J. Dannenberg, S. Dapprich, A. D. Daniels, 
 O. Farkas, J. B. Foresman, J. V. Ortiz, J. Cioslowski, 
 and D. J. Fox, Gaussian, Inc., Wallingford CT, 2009.
 
 ******************************************
 Gaussian 09:  EM64L-G09RevA.01  8-May-2009
                24-Oct-2024 
 ******************************************
 %mem=103GB
 %nproc=20
 Will use up to   20 processors via shared memory.
 %chk=5-mp2.chk
 --------------------------------------------
 # opt freq=noraman mp2/lanl2dz geom=allcheck
 --------------------------------------------
 1/18=20,19=15,29=7,38=1/1,3;
 2/9=110,12=2,40=1/2;
 3/5=6,6=3,11=9,14=-4,16=1,25=1,30=1,71=1/1,2,3;
 4//1;
 5/5=2,38=5/2;
 8/6=4,10=1/1;
 9/15=2,16=-3/6;
 10/5=1/2;
 6/7=2,8=2,9=2,10=2/1;
 7/12=2/1,2,3,16;
 1/18=20,19=15/3(2);
 2/9=110/2;
 99//99;
 2/9=110/2;
 3/5=6,6=3,11=9,14=-2,16=1,25=1,30=1,71=1/1,2,3;
 4/5=5,16=3/1;
 5/5=2,38=5/2;
 8/6=4,10=1/1;
 9/15=2,16=-3/6;
 10/5=1/2;
 7/12=2/1,2,3,16;
 1/18=20,19=15/3(-8);
 2/9=110/2;
 6/7=2,8=2,9=2,10=2/1;
 99//99;
 -------------------
 Title Card Required
 -------------------
 Redundant internal coordinates taken from checkpoint file:
 5-mp2.chk
 Charge =  0 Multiplicity = 1
 C,0,2.284698811,2.9527079831,-0.0931865715
 C,0,1.8947159824,1.6994359447,0.0880330586
 H,0,-1.0365787724,2.1853379723,-0.3982806798
 H,0,-2.0854365846,-2.1690627197,-0.1241083607
 H,0,0.4843188032,-2.8049873683,0.2343376677
 Sn,0,-0.11885172,0.9911649574,0.4299282605
 Sn,0,-0.5011149471,-1.6132478395,-0.520560787
 F,0,1.3459878976,3.9686603849,-0.1064832285
 H,0,3.2737752651,3.3366724649,-0.2324629065
 Br,0,3.3484642148,0.3536100402,0.1310566572
 Recover connectivity data from disk.

 GradGradGradGradGradGradGradGradGradGradGradGradGradGradGradGradGradGrad
 Berny optimization.
 Initialization pass.
                           ----------------------------
                           !    Initial Parameters    !
                           ! (Angstroms and Degrees)  !
 --------------------------                            --------------------------
 ! Name  Definition              Value          Derivative Info.                !
 --------------------------------------------------------------------------------
 ! R1    R(1,2)                  1.325          estimate D2E/DX2                !
 ! R2    R(1,8)                  1.3833         estimate D2E/DX2                !
 ! R3    R(1,9)                  1.0701         estimate D2E/DX2                !
 ! R4    R(2,6)                  2.1617         estimate D2E/DX2                !
 ! R5    R(2,10)                 1.9815         estimate D2E/DX2                !
 ! R6    R(3,6)                  1.7188         estimate D2E/DX2                !
 ! R7    R(4,7)                  1.7252         estimate D2E/DX2                !
 ! R8    R(5,7)                  1.7208         estimate D2E/DX2                !
 ! R9    R(6,7)                  2.7987         estimate D2E/DX2                !
 ! A1    A(2,1,8)              119.7534         estimate D2E/DX2                !
 ! A2    A(2,1,9)              128.9937         estimate D2E/DX2                !
 ! A3    A(8,1,9)              111.2506         estimate D2E/DX2                !
 ! A4    A(1,2,6)              127.2789         estimate D2E/DX2                !
 ! A5    A(1,2,10)             115.433          estimate D2E/DX2                !
 ! A6    A(6,2,10)             117.2198         estimate D2E/DX2                !
 ! A7    A(2,6,3)              101.1571         estimate D2E/DX2                !
 ! A8    A(2,6,7)              112.2356         estimate D2E/DX2                !
 ! A9    A(3,6,7)              114.2033         estimate D2E/DX2                !
 ! A10   A(4,7,5)              101.652          estimate D2E/DX2                !
 ! A11   A(4,7,6)              110.3167         estimate D2E/DX2                !
 ! A12   A(5,7,6)              114.6624         estimate D2E/DX2                !
 ! D1    D(8,1,2,6)             -1.5988         estimate D2E/DX2                !
 ! D2    D(8,1,2,10)          -178.4874         estimate D2E/DX2                !
 ! D3    D(9,1,2,6)            177.7999         estimate D2E/DX2                !
 ! D4    D(9,1,2,10)             0.9112         estimate D2E/DX2                !
 ! D5    D(1,2,6,3)             28.9481         estimate D2E/DX2                !
 ! D6    D(1,2,6,7)            151.0938         estimate D2E/DX2                !
 ! D7    D(10,2,6,3)          -154.2117         estimate D2E/DX2                !
 ! D8    D(10,2,6,7)           -32.066          estimate D2E/DX2                !
 ! D9    D(2,6,7,4)            176.0074         estimate D2E/DX2                !
 ! D10   D(2,6,7,5)             61.9921         estimate D2E/DX2                !
 ! D11   D(3,6,7,4)            -69.6023         estimate D2E/DX2                !
 ! D12   D(3,6,7,5)            176.3823         estimate D2E/DX2                !
 --------------------------------------------------------------------------------
 Trust Radius=3.00D-01 FncErr=1.00D-07 GrdErr=1.00D-07
 Number of steps in this run=  43 maximum allowed number of steps= 100.
 GradGradGradGradGradGradGradGradGradGradGradGradGradGradGradGradGradGrad

                          Input orientation:                          
 ---------------------------------------------------------------------
 Center     Atomic      Atomic             Coordinates (Angstroms)
 Number     Number       Type             X           Y           Z
 ---------------------------------------------------------------------
      1          6           0        2.284699    2.952708   -0.093187
      2          6           0        1.894716    1.699436    0.088033
      3          1           0       -1.036579    2.185338   -0.398281
      4          1           0       -2.085437   -2.169063   -0.124108
      5          1           0        0.484319   -2.804987    0.234338
      6         50           0       -0.118852    0.991165    0.429928
      7         50           0       -0.501115   -1.613248   -0.520561
      8          9           0        1.345988    3.968660   -0.106483
      9          1           0        3.273775    3.336672   -0.232463
     10         35           0        3.348464    0.353610    0.131057
 ---------------------------------------------------------------------
                    Distance matrix (angstroms):
                    1          2          3          4          5
     1  C    0.000000
     2  C    1.324997   0.000000
     3  H    3.422400   3.010829   0.000000
     4  H    6.732873   5.554449   4.487324   0.000000
     5  H    6.041498   4.722336   5.255158   2.671428   0.000000
     6  Sn   3.146165   2.161711   1.718779   3.763170   3.848746
     7  Sn   5.365758   4.133312   3.838089   1.725161   1.720812
     8  F    1.383298   2.342716   2.990319   7.031830   6.836734
     9  H    1.070093   2.164501   4.464551   7.684140   6.761579
    10  Br   2.817302   1.981535   4.781634   5.996354   4.265060
                    6          7          8          9         10
     6  Sn   0.000000
     7  Sn   2.798664   0.000000
     8  F    3.361394   5.894145   0.000000
     9  H    4.177330   6.231734   2.032645   0.000000
    10  Br   3.538090   4.371773   4.139435   3.006058   0.000000
 Stoichiometry    C2H4BrFSn2
 Framework group  C1[X(C2H4BrFSn2)]
 Deg. of freedom    24
 Full point group                 C1      NOp   1
 Largest Abelian subgroup         C1      NOp   1
 Largest concise Abelian subgroup C1      NOp   1
                         Standard orientation:                         
 ---------------------------------------------------------------------
 Center     Atomic      Atomic             Coordinates (Angstroms)
 Number     Number       Type             X           Y           Z
 ---------------------------------------------------------------------
      1          6           0        2.951653   -0.683462    0.477560
      2          6           0        1.797986   -0.142189    0.114661
      3          1           0        0.102601   -2.571708    0.651502
      4          1           0       -3.736438   -0.432997   -0.256117
      5          1           0       -2.409747    1.844756   -0.690003
      6         50           0       -0.047668   -1.173255   -0.336400
      7         50           0       -2.299267    0.391360    0.224671
      8          9           0        3.047814   -2.054605    0.633230
      9          1           0        3.887521   -0.204009    0.675988
     10         35           0        1.816419    1.825832   -0.115636
 ---------------------------------------------------------------------
 Rotational constants (GHZ):      0.8839889      0.3979056      0.2842590
 Standard basis: LANL2DZ (5D, 7F)
 There are    59 symmetry adapted basis functions of A   symmetry.
 Integral buffers will be    131072 words long.
 Raffenetti 1 integral format.
 Two-electron integral symmetry is turned on.
    59 basis functions,   127 primitive gaussians,    59 cartesian basis functions
    20 alpha electrons       20 beta electrons
       nuclear repulsion energy       133.5865360797 Hartrees.
 NAtoms=   10 NActive=   10 NUniq=   10 SFac= 7.50D-01 NAtFMM=   80 NAOKFM=F Big=F
 One-electron integrals computed using PRISM.
   1 Symmetry operations used in ECPInt.
 ECPInt:  NShTT=     630 NPrTT=    3262 LenC2=     622 LenP2D=    2684.
 LDataN:  DoStor=T MaxTD1= 4 Len=   56
 NBasis=    59 RedAO= T  NBF=    59
 NBsUse=    59 1.00D-06 NBFU=    59
 Harris functional with IExCor=  205 diagonalized for initial guess.
 ExpMin= 6.30D-02 ExpMax= 1.00D+04 ExpMxC= 3.50D+02 IAcc=2 IRadAn=         0 AccDes= 0.00D+00
 HarFok:  IExCor=  205 AccDes= 0.00D+00 IRadAn=         0 IDoV= 1
 ScaDFX=  1.000000  1.000000  1.000000  1.000000
 Defaulting to unpruned grid for atomic number  50.
 Defaulting to unpruned grid for atomic number  50.
 Defaulting to unpruned grid for atomic number  50.
 Defaulting to unpruned grid for atomic number  50.
 Defaulting to unpruned grid for atomic number  50.
 Defaulting to unpruned grid for atomic number  50.
 Defaulting to unpruned grid for atomic number  50.
 Defaulting to unpruned grid for atomic number  50.
 Defaulting to unpruned grid for atomic number  50.
 Defaulting to unpruned grid for atomic number  50.
 Defaulting to unpruned grid for atomic number  50.
 Defaulting to unpruned grid for atomic number  50.
 Defaulting to unpruned grid for atomic number  50.
 Defaulting to unpruned grid for atomic number  50.
 Defaulting to unpruned grid for atomic number  50.
 Defaulting to unpruned grid for atomic number  50.
 Defaulting to unpruned grid for atomic number  50.
 Defaulting to unpruned grid for atomic number  50.
 Defaulting to unpruned grid for atomic number  50.
 Defaulting to unpruned grid for atomic number  50.
 FoFCou: FMM=F IPFlag=           0 FMFlag=      100000 FMFlg1=           0
         NFxFlg=           0 DoJE=T BraDBF=F KetDBF=T FulRan=T
         Omega=  0.000000  0.000000  1.000000  0.000000  0.000000 ICntrl=     500 IOpCl=  0
         NMat0=    1 NMatS0=    1 NMatT0=    0 NMatD0=    1 NMtDS0=    0 NMtDT0=    0
         I1Cent=           4 NGrid=           0.
 Petite list used in FoFCou.
 Initial guess orbital symmetries:
       Occupied  (A) (A) (A) (A) (A) (A) (A) (A) (A) (A) (A) (A)
                 (A) (A) (A) (A) (A) (A) (A) (A)
       Virtual   (A) (A) (A) (A) (A) (A) (A) (A) (A) (A) (A) (A)
                 (A) (A) (A) (A) (A) (A) (A) (A) (A) (A) (A) (A)
                 (A) (A) (A) (A) (A) (A) (A) (A) (A) (A) (A) (A)
                 (A) (A) (A)
 The electronic state of the initial guess is 1-A.
 Requested convergence on RMS density matrix=1.00D-08 within 128 cycles.
 Requested convergence on MAX density matrix=1.00D-06.
 Requested convergence on             energy=1.00D-06.
 No special actions if energy rises.
 Keep R1 ints in memory in canonical form, NReq=2397586.
 SCF Done:  E(RHF) =  -196.789361050     A.U. after   15 cycles
             Convg  =    0.5288D-08             -V/T =  2.0709
 ExpMin= 6.30D-02 ExpMax= 1.00D+04 ExpMxC= 3.50D+02 IAcc=3 IRadAn=         5 AccDes= 0.00D+00
 HarFok:  IExCor=  205 AccDes= 0.00D+00 IRadAn=         5 IDoV=-2
 ScaDFX=  1.000000  1.000000  1.000000  1.000000
 Defaulting to unpruned grid for atomic number  50.
 Defaulting to unpruned grid for atomic number  50.
 Defaulting to unpruned grid for atomic number  50.
 Defaulting to unpruned grid for atomic number  50.
 Defaulting to unpruned grid for atomic number  50.
 Defaulting to unpruned grid for atomic number  50.
 Defaulting to unpruned grid for atomic number  50.
 Defaulting to unpruned grid for atomic number  50.
 Defaulting to unpruned grid for atomic number  50.
 Defaulting to unpruned grid for atomic number  50.
 Defaulting to unpruned grid for atomic number  50.
 Defaulting to unpruned grid for atomic number  50.
 Defaulting to unpruned grid for atomic number  50.
 Defaulting to unpruned grid for atomic number  50.
 Defaulting to unpruned grid for atomic number  50.
 Defaulting to unpruned grid for atomic number  50.
 Defaulting to unpruned grid for atomic number  50.
 Defaulting to unpruned grid for atomic number  50.
 Defaulting to unpruned grid for atomic number  50.
 Defaulting to unpruned grid for atomic number  50.
 Range of M.O.s used for correlation:     4    59
 NBasis=    59 NAE=    20 NBE=    20 NFC=     3 NFV=     0
 NROrb=     56 NOA=    17 NOB=    17 NVA=    39 NVB=    39
 Fully direct method using O(ONN) memory.
 JobTyp=1 Pass  1:  I=   4 to  20 NPSUse= 20 ParTrn=T ParDer=T DoDerP=T.
 Spin components of T(2) and E(2):
     alpha-alpha T2 =       0.2094816906D-01 E2=     -0.4555958066D-01
     alpha-beta  T2 =       0.1607058122D+00 E2=     -0.3133666586D+00
     beta-beta   T2 =       0.2094816906D-01 E2=     -0.4555958066D-01
 ANorm=    0.1096632186D+01
 E2 =    -0.4044858199D+00 EUMP2 =    -0.19719384686999D+03
          IDoAtm=1111111111
          Differentiating once with respect to electric field.
                with respect to dipole field.
          Differentiating once with respect to nuclear coordinates.
          Keep R1 ints in memory in canonical form, NReq=2368185.
          There are     1 degrees of freedom in the 1st order CPHF.  IDoFFX=0.
 LinEq1:  Iter=  0 NonCon=     1 RMS=9.54D-03 Max=9.64D-02
 AX will form     1 AO Fock derivatives at one time.
 LinEq1:  Iter=  1 NonCon=     1 RMS=3.69D-03 Max=3.33D-02
 LinEq1:  Iter=  2 NonCon=     1 RMS=1.30D-03 Max=1.42D-02
 LinEq1:  Iter=  3 NonCon=     1 RMS=3.90D-04 Max=3.53D-03
 LinEq1:  Iter=  4 NonCon=     1 RMS=1.37D-04 Max=1.15D-03
 LinEq1:  Iter=  5 NonCon=     1 RMS=4.33D-05 Max=3.10D-04
 LinEq1:  Iter=  6 NonCon=     1 RMS=1.35D-05 Max=8.91D-05
 LinEq1:  Iter=  7 NonCon=     1 RMS=4.15D-06 Max=4.63D-05
 LinEq1:  Iter=  8 NonCon=     1 RMS=7.87D-07 Max=5.62D-06
 LinEq1:  Iter=  9 NonCon=     1 RMS=1.65D-07 Max=2.58D-06
 LinEq1:  Iter= 10 NonCon=     1 RMS=3.63D-08 Max=3.94D-07
 LinEq1:  Iter= 11 NonCon=     1 RMS=9.80D-09 Max=1.41D-07
 LinEq1:  Iter= 12 NonCon=     1 RMS=2.26D-09 Max=1.77D-08
 LinEq1:  Iter= 13 NonCon=     1 RMS=5.01D-10 Max=4.12D-09
 LinEq1:  Iter= 14 NonCon=     0 RMS=7.61D-11 Max=6.29D-10
 Linear equations converged to 1.000D-10 1.000D-09 after    14 iterations.
 End of Minotr Frequency-dependent properties file   721 does not exist.
 End of Minotr Frequency-dependent properties file   722 does not exist.

 **********************************************************************

            Population analysis using the SCF density.

 **********************************************************************

 Orbital symmetries:
       Occupied  (A) (A) (A) (A) (A) (A) (A) (A) (A) (A) (A) (A)
                 (A) (A) (A) (A) (A) (A) (A) (A)
       Virtual   (A) (A) (A) (A) (A) (A) (A) (A) (A) (A) (A) (A)
                 (A) (A) (A) (A) (A) (A) (A) (A) (A) (A) (A) (A)
                 (A) (A) (A) (A) (A) (A) (A) (A) (A) (A) (A) (A)
                 (A) (A) (A)
 The electronic state is 1-A.
 Alpha  occ. eigenvalues --  -26.31296 -11.36923 -11.30702  -1.62758  -1.10740
 Alpha  occ. eigenvalues --   -0.98295  -0.82279  -0.72620  -0.69378  -0.69154
 Alpha  occ. eigenvalues --   -0.64512  -0.60593  -0.55261  -0.47869  -0.46574
 Alpha  occ. eigenvalues --   -0.44196  -0.40763  -0.40010  -0.37848  -0.28278
 Alpha virt. eigenvalues --   -0.03275   0.08150   0.08831   0.11769   0.12910
 Alpha virt. eigenvalues --    0.16413   0.18515   0.22536   0.27249   0.28261
 Alpha virt. eigenvalues --    0.32550   0.33527   0.34097   0.34996   0.35798
 Alpha virt. eigenvalues --    0.42599   0.46626   0.48079   0.51241   0.58048
 Alpha virt. eigenvalues --    0.60218   0.64662   0.71514   0.73663   0.76480
 Alpha virt. eigenvalues --    0.86612   0.99363   1.14652   1.21925   1.23543
 Alpha virt. eigenvalues --    1.24514   1.26012   1.29595   1.32186   1.47163
 Alpha virt. eigenvalues --    2.33281  12.33503  13.42650  19.75884
          Condensed to atoms (all electrons):
              1          2          3          4          5          6
     1  C    4.973983   0.336706   0.004115   0.000000   0.000000  -0.050597
     2  C    0.336706   6.081423  -0.030929   0.000073   0.000060   0.141828
     3  H    0.004115  -0.030929   0.851427   0.000029   0.000008   0.359213
     4  H    0.000000   0.000073   0.000029   0.880428  -0.012789  -0.008231
     5  H    0.000000   0.000060   0.000008  -0.012789   0.859606  -0.009060
     6  Sn  -0.050597   0.141828   0.359213  -0.008231  -0.009060   2.690232
     7  Sn  -0.000562  -0.022347  -0.011287   0.331211   0.340442   0.239447
     8  F    0.191626  -0.046250  -0.000729   0.000000   0.000000   0.002247
     9  H    0.399740  -0.057020   0.000002   0.000000   0.000000   0.001645
    10  Br  -0.099647   0.249918   0.000320   0.000004  -0.000127  -0.034947
              7          8          9         10
     1  C   -0.000562   0.191626   0.399740  -0.099647
     2  C   -0.022347  -0.046250  -0.057020   0.249918
     3  H   -0.011287  -0.000729   0.000002   0.000320
     4  H    0.331211   0.000000   0.000000   0.000004
     5  H    0.340442   0.000000   0.000000  -0.000127
     6  Sn   0.239447   0.002247   0.001645  -0.034947
     7  Sn   2.730521   0.000056  -0.000022   0.003239
     8  F    0.000056   9.239922  -0.042583   0.002235
     9  H   -0.000022  -0.042583   0.457137  -0.002790
    10  Br   0.003239   0.002235  -0.002790   6.886822
 Mulliken atomic charges:
              1
     1  C    0.244635
     2  C   -0.653462
     3  H   -0.172170
     4  H   -0.190725
     5  H   -0.178140
     6  Sn   0.668222
     7  Sn   0.389301
     8  F   -0.346524
     9  H    0.243890
    10  Br  -0.005027
 Sum of Mulliken atomic charges =   0.00000
 Mulliken charges with hydrogens summed into heavy atoms:
              1
     1  C    0.488525
     2  C   -0.653462
     6  Sn   0.496052
     7  Sn   0.020436
     8  F   -0.346524
    10  Br  -0.005027
 Sum of Mulliken charges with hydrogens summed into heavy atoms =   0.00000
 Electronic spatial extent (au):  <R**2>=           1304.4910
 Charge=              0.0000 electrons
 Dipole moment (field-independent basis, Debye):
    X=             -0.5664    Y=              0.1801    Z=              0.1817  Tot=              0.6215
 Quadrupole moment (field-independent basis, Debye-Ang):
   XX=            -64.0823   YY=            -73.4218   ZZ=            -69.2031
   XY=              1.6429   XZ=             -3.4042   YZ=              4.5254
 Traceless Quadrupole moment (field-independent basis, Debye-Ang):
   XX=              4.8201   YY=             -4.5194   ZZ=             -0.3007
   XY=              1.6429   XZ=             -3.4042   YZ=              4.5254
 Octapole moment (field-independent basis, Debye-Ang**2):
  XXX=            -60.1817  YYY=             12.5847  ZZZ=             -8.4257  XYY=            -47.4694
  XXY=             19.1967  XXZ=             13.7190  XZZ=            -28.2025  YZZ=              0.4842
  YYZ=            -10.0078  XYZ=              2.0687
 Hexadecapole moment (field-independent basis, Debye-Ang**3):
 XXXX=          -1685.2886 YYYY=           -786.8872 ZZZZ=           -177.7754 XXXY=             38.8934
 XXXZ=            -60.1484 YYYX=             73.9089 YYYZ=             48.5600 ZZZX=            -42.7922
 ZZZY=             25.3566 XXYY=           -481.7314 XXZZ=           -321.7856 YYZZ=           -160.4682
 XXYZ=             33.9118 YYXZ=            -37.2640 ZZXY=              6.3987
 N-N= 1.335865360797D+02 E-N=-7.239169608784D+02  KE= 1.837661531590D+02
   1 Symmetry operations used in ECPInt.
 ECPInt:  NShTT=     630 NPrTT=    3262 LenC2=     622 LenP2D=    2684.
 LDataN:  DoStor=T MaxTD1= 5 Len=  102
 Calling FoFJK, ICntrl=      2127 FMM=F ISym2X=0 I1Cent= 0 IOpClX= 0 NMat=1 NMatS=1 NMatT=0.
 ***** Axes restored to original set *****
 -------------------------------------------------------------------
 Center     Atomic                   Forces (Hartrees/Bohr)
 Number     Number              X              Y              Z
 -------------------------------------------------------------------
      1        6           0.017391920    0.014271434   -0.003494466
      2        6          -0.011954095   -0.042095747    0.007031711
      3        1          -0.003664411    0.002295123   -0.001541590
      4        1          -0.003925878   -0.000054564    0.000206338
      5        1           0.003453239   -0.001756610    0.001450251
      6       50           0.000194146   -0.007251804   -0.001619344
      7       50           0.001456515    0.008344187    0.000674250
      8        9          -0.023397832    0.027124224   -0.000424734
      9        1           0.015261934    0.005147082   -0.002431132
     10       35           0.005184463   -0.006023326    0.000148715
 -------------------------------------------------------------------
 Cartesian Forces:  Max     0.042095747 RMS     0.011938353

 GradGradGradGradGradGradGradGradGradGradGradGradGradGradGradGradGradGrad
 Berny optimization.
 Internal  Forces:  Max     0.047616102 RMS     0.011075618
 Search for a local minimum.
 Step number   1 out of a maximum of   43
 All quantities printed in internal units (Hartrees-Bohrs-Radians)
 Mixed Optimization -- RFO/linear search
 Second derivative matrix not updated -- first step.
     Eigenvalues ---    0.00230   0.00230   0.01641   0.03081   0.03081
     Eigenvalues ---    0.03467   0.04868   0.06987   0.11802   0.12082
     Eigenvalues ---    0.12136   0.12260   0.12318   0.14784   0.16000
     Eigenvalues ---    0.16000   0.16000   0.22000   0.23525   0.24983
     Eigenvalues ---    0.25000   0.37218   0.48504   0.607031000.00000
     Eigenvalues --- 1000.000001000.000001000.000001000.000001000.00000
     Eigenvalues --- 1000.000001000.000001000.00000
 RFO step:  Lambda=-8.84099896D-03 EMin= 2.30000000D-03
 Linear search not attempted -- first point.
 Iteration  1 RMS(Cart)=  0.04040616 RMS(Int)=  0.00021886
 Iteration  2 RMS(Cart)=  0.00028429 RMS(Int)=  0.00003818
 Iteration  3 RMS(Cart)=  0.00000005 RMS(Int)=  0.00003818
 Variable       Old X    -DE/DX   Delta X   Delta X   Delta X     New X
                                 (Linear)    (Quad)   (Total)
    R1        2.50388   0.04762   0.00000   0.07732   0.07732   2.58120
    R2        2.61405   0.03580   0.00000   0.07249   0.07249   2.68655
    R3        2.02218   0.01627   0.00000   0.04270   0.04270   2.06488
    R4        4.08504   0.00167   0.00000   0.01287   0.01287   4.09791
    R5        3.74456   0.00790   0.00000   0.05041   0.05041   3.79497
    R6        3.24802   0.00429   0.00000   0.03252   0.03252   3.28055
    R7        3.26008   0.00367   0.00000   0.02819   0.02819   3.28827
    R8        3.25186   0.00383   0.00000   0.02914   0.02914   3.28100
    R9        5.28871  -0.00701   0.00000  -0.08901  -0.08901   5.19970
    A1        2.09009   0.00260   0.00000   0.01136   0.01136   2.10145
    A2        2.25137  -0.00201   0.00000  -0.00986  -0.00986   2.24150
    A3        1.94169  -0.00059   0.00000  -0.00147  -0.00147   1.94022
    A4        2.22144  -0.00414   0.00000  -0.01582  -0.01584   2.20559
    A5        2.01469   0.00372   0.00000   0.01458   0.01456   2.02924
    A6        2.04587   0.00043   0.00000   0.00184   0.00181   2.04769
    A7        1.76552   0.00289   0.00000   0.02935   0.02930   1.79482
    A8        1.95888  -0.00164   0.00000  -0.00217  -0.00223   1.95665
    A9        1.99322  -0.00074   0.00000   0.00122   0.00108   1.99430
   A10        1.77416   0.00270   0.00000   0.02421   0.02422   1.79838
   A11        1.92539  -0.00120   0.00000  -0.00275  -0.00274   1.92265
   A12        2.00124  -0.00201   0.00000  -0.00793  -0.00792   1.99332
    D1       -0.02790   0.00027   0.00000   0.00992   0.00994  -0.01797
    D2       -3.11519  -0.00004   0.00000  -0.00389  -0.00391  -3.11910
    D3        3.10319   0.00044   0.00000   0.01420   0.01422   3.11741
    D4        0.01590   0.00014   0.00000   0.00040   0.00038   0.01628
    D5        0.50524  -0.00015   0.00000  -0.00815  -0.00819   0.49704
    D6        2.63708  -0.00007   0.00000   0.01005   0.01013   2.64721
    D7       -2.69150   0.00025   0.00000   0.00620   0.00611  -2.68539
    D8       -0.55966   0.00033   0.00000   0.02439   0.02444  -0.53522
    D9        3.07191  -0.00035   0.00000  -0.00574  -0.00573   3.06618
   D10        1.08197  -0.00172   0.00000  -0.02953  -0.02952   1.05245
   D11       -1.21479   0.00174   0.00000   0.03104   0.03103  -1.18376
   D12        3.07845   0.00037   0.00000   0.00725   0.00724   3.08570
         Item               Value     Threshold  Converged?
 Maximum Force            0.047616     0.000450     NO 
 RMS     Force            0.011076     0.000300     NO 
 Maximum Displacement     0.113800     0.001800     NO 
 RMS     Displacement     0.040463     0.001200     NO 
 Predicted change in Energy=-4.560590D-03
 GradGradGradGradGradGradGradGradGradGradGradGradGradGradGradGradGradGrad

                          Input orientation:                          
 ---------------------------------------------------------------------
 Center     Atomic      Atomic             Coordinates (Angstroms)
 Number     Number       Type             X           Y           Z
 ---------------------------------------------------------------------
      1          6           0        2.290285    2.964128   -0.087527
      2          6           0        1.898737    1.667669    0.090226
      3          1           0       -1.082979    2.165996   -0.409571
      4          1           0       -2.101225   -2.149586   -0.123235
      5          1           0        0.520087   -2.780001    0.246912
      6         50           0       -0.129157    0.969077    0.409740
      7         50           0       -0.498054   -1.596711   -0.513165
      8          9           0        1.328860    4.011365   -0.096078
      9          1           0        3.300683    3.354965   -0.230044
     10         35           0        3.362744    0.293390    0.121017
 ---------------------------------------------------------------------
                    Distance matrix (angstroms):
                    1          2          3          4          5
     1  C    0.000000
     2  C    1.365911   0.000000
     3  H    3.481326   3.064108   0.000000
     4  H    6.740676   5.533236   4.443317   0.000000
     5  H    6.020006   4.659076   5.240580   2.721343   0.000000
     6  Sn   3.175091   2.168519   1.735990   3.728160   3.808361
     7  Sn   5.362579   4.094492   3.809309   1.740079   1.736233
     8  F    1.421660   2.419170   3.052970   7.051492   6.847949
     9  H    1.092689   2.216978   4.545587   7.713113   6.752556
    10  Br   2.885568   2.008209   4.853105   5.990221   4.188350
                    6          7          8          9         10
     6  Sn   0.000000
     7  Sn   2.751564   0.000000
     8  F    3.411331   5.912875   0.000000
     9  H    4.226770   6.247372   2.082521   0.000000
    10  Br   3.568373   4.345162   4.243484   3.082262   0.000000
 Stoichiometry    C2H4BrFSn2
 Framework group  C1[X(C2H4BrFSn2)]
 Deg. of freedom    24
 Full point group                 C1      NOp   1
 Largest Abelian subgroup         C1      NOp   1
 Largest concise Abelian subgroup C1      NOp   1
                         Standard orientation:                         
 ---------------------------------------------------------------------
 Center     Atomic      Atomic             Coordinates (Angstroms)
 Number     Number       Type             X           Y           Z
 ---------------------------------------------------------------------
      1          6           0        2.968917   -0.726381    0.458968
      2          6           0        1.786791   -0.143905    0.099785
      3          1           0        0.044125   -2.606053    0.638023
      4          1           0       -3.727646   -0.432727   -0.252738
      5          1           0       -2.341290    1.868952   -0.684018
      6         50           0       -0.074070   -1.170577   -0.331049
      7         50           0       -2.270747    0.390735    0.223947
      8          9           0        3.060754   -2.137606    0.604322
      9          1           0        3.928618   -0.245449    0.663041
     10         35           0        1.807314    1.853359   -0.108590
 ---------------------------------------------------------------------
 Rotational constants (GHZ):      0.8639783      0.4032863      0.2843591
 Standard basis: LANL2DZ (5D, 7F)
 There are    59 symmetry adapted basis functions of A   symmetry.
 Integral buffers will be    131072 words long.
 Raffenetti 1 integral format.
 Two-electron integral symmetry is turned on.
    59 basis functions,   127 primitive gaussians,    59 cartesian basis functions
    20 alpha electrons       20 beta electrons
       nuclear repulsion energy       131.3347682847 Hartrees.
 NAtoms=   10 NActive=   10 NUniq=   10 SFac= 7.50D-01 NAtFMM=   80 NAOKFM=F Big=F
 One-electron integrals computed using PRISM.
   1 Symmetry operations used in ECPInt.
 ECPInt:  NShTT=     630 NPrTT=    3262 LenC2=     622 LenP2D=    2678.
 LDataN:  DoStor=T MaxTD1= 4 Len=   56
 NBasis=    59 RedAO= T  NBF=    59
 NBsUse=    59 1.00D-06 NBFU=    59
 Initial guess read from the read-write file.
 B after Tr=     0.000000    0.000000    0.000000
         Rot=    1.000000    0.000000    0.000000    0.000000 Ang=   0.00 deg.
 Initial guess orbital symmetries:
       Occupied  (A) (A) (A) (A) (A) (A) (A) (A) (A) (A) (A) (A)
                 (A) (A) (A) (A) (A) (A) (A) (A)
       Virtual   (A) (A) (A) (A) (A) (A) (A) (A) (A) (A) (A) (A)
                 (A) (A) (A) (A) (A) (A) (A) (A) (A) (A) (A) (A)
                 (A) (A) (A) (A) (A) (A) (A) (A) (A) (A) (A) (A)
                 (A) (A) (A)
 Harris functional with IExCor=  205 diagonalized for initial guess.
 ExpMin= 6.30D-02 ExpMax= 1.00D+04 ExpMxC= 3.50D+02 IAcc=2 IRadAn=         0 AccDes= 0.00D+00
 HarFok:  IExCor=  205 AccDes= 0.00D+00 IRadAn=         0 IDoV= 1
 ScaDFX=  1.000000  1.000000  1.000000  1.000000
 Defaulting to unpruned grid for atomic number  50.
 Defaulting to unpruned grid for atomic number  50.
 Defaulting to unpruned grid for atomic number  50.
 Defaulting to unpruned grid for atomic number  50.
 Defaulting to unpruned grid for atomic number  50.
 Defaulting to unpruned grid for atomic number  50.
 Defaulting to unpruned grid for atomic number  50.
 Defaulting to unpruned grid for atomic number  50.
 Defaulting to unpruned grid for atomic number  50.
 Defaulting to unpruned grid for atomic number  50.
 Defaulting to unpruned grid for atomic number  50.
 Defaulting to unpruned grid for atomic number  50.
 Defaulting to unpruned grid for atomic number  50.
 Defaulting to unpruned grid for atomic number  50.
 Defaulting to unpruned grid for atomic number  50.
 Defaulting to unpruned grid for atomic number  50.
 Defaulting to unpruned grid for atomic number  50.
 Defaulting to unpruned grid for atomic number  50.
 Defaulting to unpruned grid for atomic number  50.
 Defaulting to unpruned grid for atomic number  50.
 FoFCou: FMM=F IPFlag=           0 FMFlag=      100000 FMFlg1=           0
         NFxFlg=           0 DoJE=T BraDBF=F KetDBF=T FulRan=T
         Omega=  0.000000  0.000000  1.000000  0.000000  0.000000 ICntrl=     500 IOpCl=  0
         NMat0=    1 NMatS0=    1 NMatT0=    0 NMatD0=    1 NMtDS0=    0 NMtDT0=    0
         I1Cent=           4 NGrid=           0.
 Petite list used in FoFCou.
 Requested convergence on RMS density matrix=1.00D-08 within 128 cycles.
 Requested convergence on MAX density matrix=1.00D-06.
 Requested convergence on             energy=1.00D-06.
 No special actions if energy rises.
 Keep R1 ints in memory in canonical form, NReq=2397586.
 SCF Done:  E(RHF) =  -196.784878277     A.U. after   13 cycles
             Convg  =    0.3502D-08             -V/T =  2.0726
 ExpMin= 6.30D-02 ExpMax= 1.00D+04 ExpMxC= 3.50D+02 IAcc=3 IRadAn=         5 AccDes= 0.00D+00
 HarFok:  IExCor=  205 AccDes= 0.00D+00 IRadAn=         5 IDoV=-2
 ScaDFX=  1.000000  1.000000  1.000000  1.000000
 Defaulting to unpruned grid for atomic number  50.
 Defaulting to unpruned grid for atomic number  50.
 Defaulting to unpruned grid for atomic number  50.
 Defaulting to unpruned grid for atomic number  50.
 Defaulting to unpruned grid for atomic number  50.
 Defaulting to unpruned grid for atomic number  50.
 Defaulting to unpruned grid for atomic number  50.
 Defaulting to unpruned grid for atomic number  50.
 Defaulting to unpruned grid for atomic number  50.
 Defaulting to unpruned grid for atomic number  50.
 Defaulting to unpruned grid for atomic number  50.
 Defaulting to unpruned grid for atomic number  50.
 Defaulting to unpruned grid for atomic number  50.
 Defaulting to unpruned grid for atomic number  50.
 Defaulting to unpruned grid for atomic number  50.
 Defaulting to unpruned grid for atomic number  50.
 Defaulting to unpruned grid for atomic number  50.
 Defaulting to unpruned grid for atomic number  50.
 Defaulting to unpruned grid for atomic number  50.
 Defaulting to unpruned grid for atomic number  50.
 Range of M.O.s used for correlation:     4    59
 NBasis=    59 NAE=    20 NBE=    20 NFC=     3 NFV=     0
 NROrb=     56 NOA=    17 NOB=    17 NVA=    39 NVB=    39
 Fully direct method using O(ONN) memory.
 JobTyp=1 Pass  1:  I=   4 to  20 NPSUse= 20 ParTrn=T ParDer=T DoDerP=T.
 Spin components of T(2) and E(2):
     alpha-alpha T2 =       0.2183777758D-01 E2=     -0.4662452124D-01
     alpha-beta  T2 =       0.1673339473D+00 E2=     -0.3201397414D+00
     beta-beta   T2 =       0.2183777758D-01 E2=     -0.4662452124D-01
 ANorm=    0.1100458769D+01
 E2 =    -0.4133887839D+00 EUMP2 =    -0.19719826706086D+03
          IDoAtm=1111111111
          Differentiating once with respect to electric field.
                with respect to dipole field.
          Differentiating once with respect to nuclear coordinates.
          Keep R1 ints in memory in canonical form, NReq=2368185.
          There are     1 degrees of freedom in the 1st order CPHF.  IDoFFX=0.
 LinEq1:  Iter=  0 NonCon=     1 RMS=9.72D-03 Max=9.57D-02
 AX will form     1 AO Fock derivatives at one time.
 LinEq1:  Iter=  1 NonCon=     1 RMS=3.90D-03 Max=3.52D-02
 LinEq1:  Iter=  2 NonCon=     1 RMS=1.33D-03 Max=1.50D-02
 LinEq1:  Iter=  3 NonCon=     1 RMS=4.20D-04 Max=3.75D-03
 LinEq1:  Iter=  4 NonCon=     1 RMS=1.51D-04 Max=1.31D-03
 LinEq1:  Iter=  5 NonCon=     1 RMS=4.92D-05 Max=3.21D-04
 LinEq1:  Iter=  6 NonCon=     1 RMS=1.57D-05 Max=1.10D-04
 LinEq1:  Iter=  7 NonCon=     1 RMS=4.72D-06 Max=5.56D-05
 LinEq1:  Iter=  8 NonCon=     1 RMS=9.30D-07 Max=7.37D-06
 LinEq1:  Iter=  9 NonCon=     1 RMS=2.48D-07 Max=4.29D-06
 LinEq1:  Iter= 10 NonCon=     1 RMS=5.98D-08 Max=5.52D-07
 LinEq1:  Iter= 11 NonCon=     1 RMS=1.51D-08 Max=1.50D-07
 LinEq1:  Iter= 12 NonCon=     1 RMS=3.02D-09 Max=1.72D-08
 LinEq1:  Iter= 13 NonCon=     1 RMS=5.71D-10 Max=5.02D-09
 LinEq1:  Iter= 14 NonCon=     0 RMS=9.39D-11 Max=6.43D-10
 Linear equations converged to 1.000D-10 1.000D-09 after    14 iterations.
 End of Minotr Frequency-dependent properties file   721 does not exist.
 End of Minotr Frequency-dependent properties file   722 does not exist.
   1 Symmetry operations used in ECPInt.
 ECPInt:  NShTT=     630 NPrTT=    3262 LenC2=     622 LenP2D=    2678.
 LDataN:  DoStor=T MaxTD1= 5 Len=  102
 Calling FoFJK, ICntrl=      2127 FMM=F ISym2X=0 I1Cent= 0 IOpClX= 0 NMat=1 NMatS=1 NMatT=0.
 ***** Axes restored to original set *****
 -------------------------------------------------------------------
 Center     Atomic                   Forces (Hartrees/Bohr)
 Number     Number              X              Y              Z
 -------------------------------------------------------------------
      1        6           0.008272576   -0.007656541    0.000002754
      2        6          -0.001194844   -0.000147892    0.000347790
      3        1          -0.000026102   -0.000476700    0.000639831
      4        1           0.000246676    0.000713477   -0.000500599
      5        1           0.000256567    0.000823741   -0.000399719
      6       50          -0.000036686    0.000320743   -0.001697959
      7       50          -0.000350677   -0.000285461    0.001516286
      8        9          -0.005781687    0.003748964    0.000322652
      9        1          -0.000498394    0.000587140   -0.000092768
     10       35          -0.000887430    0.002372528   -0.000138268
 -------------------------------------------------------------------
 Cartesian Forces:  Max     0.008272576 RMS     0.002523922

 GradGradGradGradGradGradGradGradGradGradGradGradGradGradGradGradGradGrad
 Berny optimization.
 Using GEDIIS/GDIIS optimizer.
 Internal  Forces:  Max     0.006669636 RMS     0.001699605
 Search for a local minimum.
 Step number   2 out of a maximum of   43
 All quantities printed in internal units (Hartrees-Bohrs-Radians)
 Mixed Optimization -- RFO/linear search
 Update second derivatives using D2CorX and points    1    2
 DE= -4.42D-03 DEPred=-4.56D-03 R= 9.69D-01
 SS=  1.41D+00  RLast= 1.78D-01 DXNew= 5.0454D-01 5.3365D-01
 Trust test= 9.69D-01 RLast= 1.78D-01 DXMaxT set to 5.05D-01
 Use linear search instead of GDIIS.
     Eigenvalues ---    0.00230   0.00230   0.01648   0.03080   0.03081
     Eigenvalues ---    0.03307   0.04816   0.06878   0.11888   0.12088
     Eigenvalues ---    0.12164   0.12282   0.12440   0.15215   0.15881
     Eigenvalues ---    0.16000   0.16046   0.22242   0.23444   0.24818
     Eigenvalues ---    0.25249   0.37432   0.44048   0.650181000.00000
     Eigenvalues --- 1000.000001000.000001000.000001000.000001000.00000
     Eigenvalues --- 1000.000001000.000001000.00000
 RFO step:  Lambda=-4.01934548D-04 EMin= 2.29989252D-03
 Quartic linear search produced a step of  0.03283.
 Iteration  1 RMS(Cart)=  0.02229183 RMS(Int)=  0.00018303
 Iteration  2 RMS(Cart)=  0.00025788 RMS(Int)=  0.00002720
 Iteration  3 RMS(Cart)=  0.00000003 RMS(Int)=  0.00002720
 Variable       Old X    -DE/DX   Delta X   Delta X   Delta X     New X
                                 (Linear)    (Quad)   (Total)
    R1        2.58120  -0.00261   0.00254  -0.00363  -0.00109   2.58011
    R2        2.68655   0.00667   0.00238   0.01496   0.01734   2.70389
    R3        2.06488  -0.00024   0.00140  -0.00019   0.00121   2.06609
    R4        4.09791  -0.00050   0.00042  -0.00410  -0.00368   4.09423
    R5        3.79497  -0.00227   0.00165  -0.01517  -0.01352   3.78145
    R6        3.28055  -0.00062   0.00107  -0.00470  -0.00363   3.27691
    R7        3.28827  -0.00057   0.00093  -0.00441  -0.00349   3.28479
    R8        3.28100  -0.00059   0.00096  -0.00452  -0.00356   3.27744
    R9        5.19970  -0.00139  -0.00292  -0.02200  -0.02492   5.17478
    A1        2.10145  -0.00365   0.00037  -0.01699  -0.01662   2.08484
    A2        2.24150   0.00258  -0.00032   0.01331   0.01299   2.25449
    A3        1.94022   0.00107  -0.00005   0.00367   0.00362   1.94383
    A4        2.20559  -0.00065  -0.00052  -0.00290  -0.00342   2.20217
    A5        2.02924  -0.00181   0.00048  -0.00736  -0.00688   2.02236
    A6        2.04769   0.00246   0.00006   0.01013   0.01019   2.05787
    A7        1.79482   0.00063   0.00096   0.01221   0.01309   1.80791
    A8        1.95665  -0.00013  -0.00007   0.00245   0.00232   1.95898
    A9        1.99430   0.00009   0.00004   0.00689   0.00682   2.00113
   A10        1.79838   0.00131   0.00080   0.01477   0.01556   1.81394
   A11        1.92265  -0.00048  -0.00009   0.00011   0.00002   1.92267
   A12        1.99332  -0.00090  -0.00026  -0.00291  -0.00317   1.99015
    D1       -0.01797   0.00011   0.00033   0.00226   0.00259  -0.01537
    D2       -3.11910   0.00014  -0.00013   0.00602   0.00589  -3.11321
    D3        3.11741   0.00005   0.00047   0.00037   0.00085   3.11826
    D4        0.01628   0.00007   0.00001   0.00414   0.00414   0.02042
    D5        0.49704  -0.00012  -0.00027   0.00851   0.00822   0.50526
    D6        2.64721   0.00031   0.00033   0.02588   0.02625   2.67347
    D7       -2.68539  -0.00024   0.00020   0.00435   0.00451  -2.68088
    D8       -0.53522   0.00019   0.00080   0.02172   0.02254  -0.51267
    D9        3.06618   0.00003  -0.00019   0.01066   0.01046   3.07664
   D10        1.05245  -0.00074  -0.00097  -0.00621  -0.00720   1.04525
   D11       -1.18376   0.00081   0.00102   0.03282   0.03385  -1.14991
   D12        3.08570   0.00004   0.00024   0.01594   0.01619   3.10189
         Item               Value     Threshold  Converged?
 Maximum Force            0.006670     0.000450     NO 
 RMS     Force            0.001700     0.000300     NO 
 Maximum Displacement     0.052739     0.001800     NO 
 RMS     Displacement     0.022336     0.001200     NO 
 Predicted change in Energy=-2.028450D-04
 GradGradGradGradGradGradGradGradGradGradGradGradGradGradGradGradGradGrad

                          Input orientation:                          
 ---------------------------------------------------------------------
 Center     Atomic      Atomic             Coordinates (Angstroms)
 Number     Number       Type             X           Y           Z
 ---------------------------------------------------------------------
      1          6           0        2.296606    2.956468   -0.082153
      2          6           0        1.903237    1.658909    0.078270
      3          1           0       -1.091300    2.159283   -0.420186
      4          1           0       -2.106515   -2.132825   -0.132553
      5          1           0        0.522800   -2.766707    0.274820
      6         50           0       -0.126281    0.966916    0.388510
      7         50           0       -0.494829   -1.596405   -0.501576
      8          9           0        1.313755    3.996249   -0.069801
      9          1           0        3.302807    3.360914   -0.221260
     10         35           0        3.369700    0.297490    0.094201
 ---------------------------------------------------------------------
                    Distance matrix (angstroms):
                    1          2          3          4          5
     1  C    0.000000
     2  C    1.365333   0.000000
     3  H    3.496810   3.076700   0.000000
     4  H    6.729853   5.522663   4.419908   0.000000
     5  H    6.002379   4.640077   5.230080   2.735153   0.000000
     6  Sn   3.170208   2.166574   1.734068   3.715001   3.791329
     7  Sn   5.356928   4.084606   3.803629   1.738234   1.734349
     8  F    1.430837   2.415072   3.046556   7.019098   6.817767
     9  H    1.093329   2.223812   4.559788   7.710370   6.747020
    10  Br   2.872767   2.001057   4.861213   5.995563   4.186498
                    6          7          8          9         10
     6  Sn   0.000000
     7  Sn   2.738375   0.000000
     8  F    3.385352   5.893656   0.000000
     9  H    4.226309   6.251050   2.093542   0.000000
    10  Br   3.571642   4.344694   4.234929   3.080350   0.000000
 Stoichiometry    C2H4BrFSn2
 Framework group  C1[X(C2H4BrFSn2)]
 Deg. of freedom    24
 Full point group                 C1      NOp   1
 Largest Abelian subgroup         C1      NOp   1
 Largest concise Abelian subgroup C1      NOp   1
                         Standard orientation:                         
 ---------------------------------------------------------------------
 Center     Atomic      Atomic             Coordinates (Angstroms)
 Number     Number       Type             X           Y           Z
 ---------------------------------------------------------------------
      1          6           0        2.966403   -0.731726    0.436262
      2          6           0        1.781576   -0.144312    0.096759
      3          1           0        0.023316   -2.608164    0.648158
      4          1           0       -3.723529   -0.435572   -0.233085
      5          1           0       -2.322233    1.863572   -0.714090
      6         50           0       -0.082583   -1.169226   -0.313733
      7         50           0       -2.265126    0.398643    0.212566
      8          9           0        3.034833   -2.155220    0.563840
      9          1           0        3.936111   -0.266904    0.633685
     10         35           0        1.819155    1.846555   -0.101399
 ---------------------------------------------------------------------
 Rotational constants (GHZ):      0.8687839      0.4052527      0.2848451
 Standard basis: LANL2DZ (5D, 7F)
 There are    59 symmetry adapted basis functions of A   symmetry.
 Integral buffers will be    131072 words long.
 Raffenetti 1 integral format.
 Two-electron integral symmetry is turned on.
    59 basis functions,   127 primitive gaussians,    59 cartesian basis functions
    20 alpha electrons       20 beta electrons
       nuclear repulsion energy       131.4050301602 Hartrees.
 NAtoms=   10 NActive=   10 NUniq=   10 SFac= 7.50D-01 NAtFMM=   80 NAOKFM=F Big=F
 One-electron integrals computed using PRISM.
   1 Symmetry operations used in ECPInt.
 ECPInt:  NShTT=     630 NPrTT=    3262 LenC2=     622 LenP2D=    2678.
 LDataN:  DoStor=T MaxTD1= 4 Len=   56
 NBasis=    59 RedAO= T  NBF=    59
 NBsUse=    59 1.00D-06 NBFU=    59
 Initial guess read from the read-write file.
 B after Tr=     0.000000    0.000000    0.000000
         Rot=    1.000000    0.000000    0.000000    0.000000 Ang=   0.00 deg.
 Initial guess orbital symmetries:
       Occupied  (A) (A) (A) (A) (A) (A) (A) (A) (A) (A) (A) (A)
                 (A) (A) (A) (A) (A) (A) (A) (A)
       Virtual   (A) (A) (A) (A) (A) (A) (A) (A) (A) (A) (A) (A)
                 (A) (A) (A) (A) (A) (A) (A) (A) (A) (A) (A) (A)
                 (A) (A) (A) (A) (A) (A) (A) (A) (A) (A) (A) (A)
                 (A) (A) (A)
 Harris functional with IExCor=  205 diagonalized for initial guess.
 ExpMin= 6.30D-02 ExpMax= 1.00D+04 ExpMxC= 3.50D+02 IAcc=2 IRadAn=         0 AccDes= 0.00D+00
 HarFok:  IExCor=  205 AccDes= 0.00D+00 IRadAn=         0 IDoV= 1
 ScaDFX=  1.000000  1.000000  1.000000  1.000000
 Defaulting to unpruned grid for atomic number  50.
 Defaulting to unpruned grid for atomic number  50.
 Defaulting to unpruned grid for atomic number  50.
 Defaulting to unpruned grid for atomic number  50.
 Defaulting to unpruned grid for atomic number  50.
 Defaulting to unpruned grid for atomic number  50.
 Defaulting to unpruned grid for atomic number  50.
 Defaulting to unpruned grid for atomic number  50.
 Defaulting to unpruned grid for atomic number  50.
 Defaulting to unpruned grid for atomic number  50.
 Defaulting to unpruned grid for atomic number  50.
 Defaulting to unpruned grid for atomic number  50.
 Defaulting to unpruned grid for atomic number  50.
 Defaulting to unpruned grid for atomic number  50.
 Defaulting to unpruned grid for atomic number  50.
 Defaulting to unpruned grid for atomic number  50.
 Defaulting to unpruned grid for atomic number  50.
 Defaulting to unpruned grid for atomic number  50.
 Defaulting to unpruned grid for atomic number  50.
 Defaulting to unpruned grid for atomic number  50.
 FoFCou: FMM=F IPFlag=           0 FMFlag=      100000 FMFlg1=           0
         NFxFlg=           0 DoJE=T BraDBF=F KetDBF=T FulRan=T
         Omega=  0.000000  0.000000  1.000000  0.000000  0.000000 ICntrl=     500 IOpCl=  0
         NMat0=    1 NMatS0=    1 NMatT0=    0 NMatD0=    1 NMtDS0=    0 NMtDT0=    0
         I1Cent=           4 NGrid=           0.
 Petite list used in FoFCou.
 Requested convergence on RMS density matrix=1.00D-08 within 128 cycles.
 Requested convergence on MAX density matrix=1.00D-06.
 Requested convergence on             energy=1.00D-06.
 No special actions if energy rises.
 Keep R1 ints in memory in canonical form, NReq=2397586.
 SCF Done:  E(RHF) =  -196.784515821     A.U. after   12 cycles
             Convg  =    0.5131D-08             -V/T =  2.0726
 ExpMin= 6.30D-02 ExpMax= 1.00D+04 ExpMxC= 3.50D+02 IAcc=3 IRadAn=         5 AccDes= 0.00D+00
 HarFok:  IExCor=  205 AccDes= 0.00D+00 IRadAn=         5 IDoV=-2
 ScaDFX=  1.000000  1.000000  1.000000  1.000000
 Defaulting to unpruned grid for atomic number  50.
 Defaulting to unpruned grid for atomic number  50.
 Defaulting to unpruned grid for atomic number  50.
 Defaulting to unpruned grid for atomic number  50.
 Defaulting to unpruned grid for atomic number  50.
 Defaulting to unpruned grid for atomic number  50.
 Defaulting to unpruned grid for atomic number  50.
 Defaulting to unpruned grid for atomic number  50.
 Defaulting to unpruned grid for atomic number  50.
 Defaulting to unpruned grid for atomic number  50.
 Defaulting to unpruned grid for atomic number  50.
 Defaulting to unpruned grid for atomic number  50.
 Defaulting to unpruned grid for atomic number  50.
 Defaulting to unpruned grid for atomic number  50.
 Defaulting to unpruned grid for atomic number  50.
 Defaulting to unpruned grid for atomic number  50.
 Defaulting to unpruned grid for atomic number  50.
 Defaulting to unpruned grid for atomic number  50.
 Defaulting to unpruned grid for atomic number  50.
 Defaulting to unpruned grid for atomic number  50.
 Range of M.O.s used for correlation:     4    59
 NBasis=    59 NAE=    20 NBE=    20 NFC=     3 NFV=     0
 NROrb=     56 NOA=    17 NOB=    17 NVA=    39 NVB=    39
 Fully direct method using O(ONN) memory.
 JobTyp=1 Pass  1:  I=   4 to  20 NPSUse= 20 ParTrn=T ParDer=T DoDerP=T.
 Spin components of T(2) and E(2):
     alpha-alpha T2 =       0.2188827537D-01 E2=     -0.4671637714D-01
     alpha-beta  T2 =       0.1676804697D+00 E2=     -0.3205865740D+00
     beta-beta   T2 =       0.2188827537D-01 E2=     -0.4671637714D-01
 ANorm=    0.1100662083D+01
 E2 =    -0.4140193283D+00 EUMP2 =    -0.19719853514956D+03
          IDoAtm=1111111111
          Differentiating once with respect to electric field.
                with respect to dipole field.
          Differentiating once with respect to nuclear coordinates.
          Keep R1 ints in memory in canonical form, NReq=2368185.
          There are     1 degrees of freedom in the 1st order CPHF.  IDoFFX=0.
 LinEq1:  Iter=  0 NonCon=     1 RMS=9.69D-03 Max=9.52D-02
 AX will form     1 AO Fock derivatives at one time.
 LinEq1:  Iter=  1 NonCon=     1 RMS=3.90D-03 Max=3.54D-02
 LinEq1:  Iter=  2 NonCon=     1 RMS=1.32D-03 Max=1.50D-02
 LinEq1:  Iter=  3 NonCon=     1 RMS=4.13D-04 Max=3.60D-03
 LinEq1:  Iter=  4 NonCon=     1 RMS=1.50D-04 Max=1.31D-03
 LinEq1:  Iter=  5 NonCon=     1 RMS=4.91D-05 Max=3.27D-04
 LinEq1:  Iter=  6 NonCon=     1 RMS=1.58D-05 Max=1.10D-04
 LinEq1:  Iter=  7 NonCon=     1 RMS=4.71D-06 Max=5.49D-05
 LinEq1:  Iter=  8 NonCon=     1 RMS=9.39D-07 Max=7.42D-06
 LinEq1:  Iter=  9 NonCon=     1 RMS=2.56D-07 Max=4.37D-06
 LinEq1:  Iter= 10 NonCon=     1 RMS=6.11D-08 Max=5.33D-07
 LinEq1:  Iter= 11 NonCon=     1 RMS=1.52D-08 Max=1.44D-07
 LinEq1:  Iter= 12 NonCon=     1 RMS=3.03D-09 Max=1.71D-08
 LinEq1:  Iter= 13 NonCon=     1 RMS=5.64D-10 Max=5.03D-09
 LinEq1:  Iter= 14 NonCon=     0 RMS=9.41D-11 Max=6.20D-10
 Linear equations converged to 1.000D-10 1.000D-09 after    14 iterations.
 End of Minotr Frequency-dependent properties file   721 does not exist.
 End of Minotr Frequency-dependent properties file   722 does not exist.
   1 Symmetry operations used in ECPInt.
 ECPInt:  NShTT=     630 NPrTT=    3262 LenC2=     622 LenP2D=    2678.
 LDataN:  DoStor=T MaxTD1= 5 Len=  102
 Calling FoFJK, ICntrl=      2127 FMM=F ISym2X=0 I1Cent= 0 IOpClX= 0 NMat=1 NMatS=1 NMatT=0.
 ***** Axes restored to original set *****
 -------------------------------------------------------------------
 Center     Atomic                   Forces (Hartrees/Bohr)
 Number     Number              X              Y              Z
 -------------------------------------------------------------------
      1        6           0.002989291   -0.003917320    0.000203014
      2        6          -0.000226223    0.000918364    0.000092892
      3        1           0.000196619   -0.000340210    0.000301818
      4        1           0.000254309    0.000364718   -0.000142493
      5        1           0.000053077    0.000483739   -0.000263220
      6       50          -0.000106146    0.001033110   -0.000672300
      7       50          -0.000288756   -0.000789818    0.000506014
      8        9          -0.001802650    0.001574188    0.000028997
      9        1          -0.001259788    0.000439802    0.000050162
     10       35           0.000190267    0.000233428   -0.000104885
 -------------------------------------------------------------------
 Cartesian Forces:  Max     0.003917320 RMS     0.001097000

 GradGradGradGradGradGradGradGradGradGradGradGradGradGradGradGradGradGrad
 Berny optimization.
 Using GEDIIS/GDIIS optimizer.
 Internal  Forces:  Max     0.002382456 RMS     0.000736714
 Search for a local minimum.
 Step number   3 out of a maximum of   43
 All quantities printed in internal units (Hartrees-Bohrs-Radians)
 Mixed Optimization -- En-DIIS/RFO-DIIS
 Update second derivatives using D2CorX and points    1    2    3
 DE= -2.68D-04 DEPred=-2.03D-04 R= 1.32D+00
 SS=  1.41D+00  RLast= 7.19D-02 DXNew= 8.4853D-01 2.1569D-01
 Trust test= 1.32D+00 RLast= 7.19D-02 DXMaxT set to 5.05D-01
 Use linear search instead of GDIIS.
     Eigenvalues ---    0.00223   0.00238   0.01639   0.02916   0.03084
     Eigenvalues ---    0.03088   0.04646   0.06802   0.11714   0.12079
     Eigenvalues ---    0.12156   0.12273   0.12345   0.14079   0.15586
     Eigenvalues ---    0.16001   0.16213   0.20494   0.23380   0.24160
     Eigenvalues ---    0.26374   0.37793   0.41474   0.646521000.00000
     Eigenvalues --- 1000.000001000.000001000.000001000.000001000.00000
     Eigenvalues --- 1000.000001000.000001000.00000
 RFO step:  Lambda=-9.79577051D-05 EMin= 2.22512405D-03
 Quartic linear search produced a step of  0.46836.
 Iteration  1 RMS(Cart)=  0.04963188 RMS(Int)=  0.00062571
 Iteration  2 RMS(Cart)=  0.00126294 RMS(Int)=  0.00003199
 Iteration  3 RMS(Cart)=  0.00000058 RMS(Int)=  0.00003199
 Variable       Old X    -DE/DX   Delta X   Delta X   Delta X     New X
                                 (Linear)    (Quad)   (Total)
    R1        2.58011  -0.00186  -0.00051  -0.00214  -0.00265   2.57745
    R2        2.70389   0.00238   0.00812   0.00517   0.01330   2.71719
    R3        2.06609  -0.00100   0.00057  -0.00303  -0.00246   2.06363
    R4        4.09423  -0.00038  -0.00172  -0.00337  -0.00509   4.08914
    R5        3.78145  -0.00002  -0.00633   0.00431  -0.00202   3.77943
    R6        3.27691  -0.00048  -0.00170  -0.00394  -0.00564   3.27127
    R7        3.28479  -0.00038  -0.00163  -0.00292  -0.00455   3.28024
    R8        3.27744  -0.00041  -0.00167  -0.00324  -0.00491   3.27254
    R9        5.17478  -0.00009  -0.01167   0.00097  -0.01070   5.16408
    A1        2.08484  -0.00102  -0.00778  -0.00264  -0.01042   2.07442
    A2        2.25449   0.00142   0.00608   0.00841   0.01450   2.26899
    A3        1.94383  -0.00040   0.00169  -0.00576  -0.00406   1.93977
    A4        2.20217  -0.00120  -0.00160  -0.00663  -0.00824   2.19393
    A5        2.02236   0.00001  -0.00322   0.00203  -0.00120   2.02116
    A6        2.05787   0.00119   0.00477   0.00470   0.00947   2.06734
    A7        1.80791   0.00018   0.00613   0.00416   0.01019   1.81811
    A8        1.95898   0.00004   0.00109   0.00152   0.00254   1.96152
    A9        2.00113   0.00006   0.00320   0.00314   0.00623   2.00736
   A10        1.81394   0.00060   0.00729   0.00514   0.01243   1.82637
   A11        1.92267  -0.00037   0.00001  -0.00213  -0.00212   1.92055
   A12        1.99015  -0.00044  -0.00148  -0.00227  -0.00375   1.98639
    D1       -0.01537  -0.00001   0.00121  -0.00085   0.00037  -0.01501
    D2       -3.11321  -0.00004   0.00276  -0.00360  -0.00085  -3.11406
    D3        3.11826   0.00004   0.00040   0.00250   0.00290   3.12116
    D4        0.02042   0.00002   0.00194  -0.00025   0.00169   0.02211
    D5        0.50526  -0.00004   0.00385   0.03805   0.04186   0.54712
    D6        2.67347   0.00018   0.01230   0.04549   0.05783   2.73129
    D7       -2.68088  -0.00003   0.00211   0.04078   0.04285  -2.63803
    D8       -0.51267   0.00019   0.01056   0.04822   0.05881  -0.45386
    D9        3.07664  -0.00013   0.00490  -0.05683  -0.05195   3.02469
   D10        1.04525  -0.00035  -0.00337  -0.06045  -0.06384   0.98141
   D11       -1.14991   0.00018   0.01586  -0.04807  -0.03219  -1.18210
   D12        3.10189  -0.00004   0.00758  -0.05168  -0.04408   3.05781
         Item               Value     Threshold  Converged?
 Maximum Force            0.002382     0.000450     NO 
 RMS     Force            0.000737     0.000300     NO 
 Maximum Displacement     0.142325     0.001800     NO 
 RMS     Displacement     0.049600     0.001200     NO 
 Predicted change in Energy=-8.007570D-05
 GradGradGradGradGradGradGradGradGradGradGradGradGradGradGradGradGradGrad

                          Input orientation:                          
 ---------------------------------------------------------------------
 Center     Atomic      Atomic             Coordinates (Angstroms)
 Number     Number       Type             X           Y           Z
 ---------------------------------------------------------------------
      1          6           0        2.302373    2.947712   -0.057513
      2          6           0        1.900647    1.649806    0.062318
      3          1           0       -1.089564    2.160136   -0.495501
      4          1           0       -2.103883   -2.135180   -0.069027
      5          1           0        0.551957   -2.736492    0.272807
      6         50           0       -0.138010    0.979350    0.339328
      7         50           0       -0.507580   -1.598322   -0.489374
      8          9           0        1.310184    3.987662   -0.018219
      9          1           0        3.304390    3.363841   -0.181277
     10         35           0        3.359465    0.281780    0.044732
 ---------------------------------------------------------------------
                    Distance matrix (angstroms):
                    1          2          3          4          5
     1  C    0.000000
     2  C    1.363930   0.000000
     3  H    3.509608   3.084308   0.000000
     4  H    6.726888   5.511772   4.434012   0.000000
     5  H    5.956781   4.593787   5.221288   2.744433   0.000000
     6  Sn   3.160286   2.163878   1.731083   3.705631   3.779941
     7  Sn   5.361788   4.080963   3.803255   1.735826   1.731753
     8  F    1.437873   2.412613   3.053921   7.010537   6.773023
     9  H    1.092025   2.228845   4.566670   7.713705   6.707916
    10  Br   2.869685   1.999989   4.859417   5.975183   4.128448
                    6          7          8          9         10
     6  Sn   0.000000
     7  Sn   2.732713   0.000000
     8  F    3.357834   5.893172   0.000000
     9  H    4.219828   6.264910   2.095853   0.000000
    10  Br   3.578509   4.332908   4.235218   3.090827   0.000000
 Stoichiometry    C2H4BrFSn2
 Framework group  C1[X(C2H4BrFSn2)]
 Deg. of freedom    24
 Full point group                 C1      NOp   1
 Largest Abelian subgroup         C1      NOp   1
 Largest concise Abelian subgroup C1      NOp   1
                         Standard orientation:                         
 ---------------------------------------------------------------------
 Center     Atomic      Atomic             Coordinates (Angstroms)
 Number     Number       Type             X           Y           Z
 ---------------------------------------------------------------------
      1          6           0        2.976805   -0.722226    0.381161
      2          6           0        1.781303   -0.136214    0.085073
      3          1           0        0.026306   -2.593421    0.713627
      4          1           0       -3.709440   -0.429094   -0.296498
      5          1           0       -2.271773    1.869422   -0.722938
      6         50           0       -0.080330   -1.178028   -0.277302
      7         50           0       -2.263156    0.398124    0.190395
      8          9           0        3.040056   -2.154804    0.486991
      9          1           0        3.955052   -0.270603    0.558889
     10         35           0        1.807572    1.856079   -0.088231
 ---------------------------------------------------------------------
 Rotational constants (GHZ):      0.8701804      0.4082318      0.2845928
 Standard basis: LANL2DZ (5D, 7F)
 There are    59 symmetry adapted basis functions of A   symmetry.
 Integral buffers will be    131072 words long.
 Raffenetti 1 integral format.
 Two-electron integral symmetry is turned on.
    59 basis functions,   127 primitive gaussians,    59 cartesian basis functions
    20 alpha electrons       20 beta electrons
       nuclear repulsion energy       131.4468315676 Hartrees.
 NAtoms=   10 NActive=   10 NUniq=   10 SFac= 7.50D-01 NAtFMM=   80 NAOKFM=F Big=F
 One-electron integrals computed using PRISM.
   1 Symmetry operations used in ECPInt.
 ECPInt:  NShTT=     630 NPrTT=    3262 LenC2=     622 LenP2D=    2677.
 LDataN:  DoStor=T MaxTD1= 4 Len=   56
 NBasis=    59 RedAO= T  NBF=    59
 NBsUse=    59 1.00D-06 NBFU=    59
 Initial guess read from the read-write file.
 B after Tr=     0.000000    0.000000    0.000000
         Rot=    1.000000    0.000000    0.000000    0.000000 Ang=   0.00 deg.
 Initial guess orbital symmetries:
       Occupied  (A) (A) (A) (A) (A) (A) (A) (A) (A) (A) (A) (A)
                 (A) (A) (A) (A) (A) (A) (A) (A)
       Virtual   (A) (A) (A) (A) (A) (A) (A) (A) (A) (A) (A) (A)
                 (A) (A) (A) (A) (A) (A) (A) (A) (A) (A) (A) (A)
                 (A) (A) (A) (A) (A) (A) (A) (A) (A) (A) (A) (A)
                 (A) (A) (A)
 Harris functional with IExCor=  205 diagonalized for initial guess.
 ExpMin= 6.30D-02 ExpMax= 1.00D+04 ExpMxC= 3.50D+02 IAcc=2 IRadAn=         0 AccDes= 0.00D+00
 HarFok:  IExCor=  205 AccDes= 0.00D+00 IRadAn=         0 IDoV= 1
 ScaDFX=  1.000000  1.000000  1.000000  1.000000
 Defaulting to unpruned grid for atomic number  50.
 Defaulting to unpruned grid for atomic number  50.
 Defaulting to unpruned grid for atomic number  50.
 Defaulting to unpruned grid for atomic number  50.
 Defaulting to unpruned grid for atomic number  50.
 Defaulting to unpruned grid for atomic number  50.
 Defaulting to unpruned grid for atomic number  50.
 Defaulting to unpruned grid for atomic number  50.
 Defaulting to unpruned grid for atomic number  50.
 Defaulting to unpruned grid for atomic number  50.
 Defaulting to unpruned grid for atomic number  50.
 Defaulting to unpruned grid for atomic number  50.
 Defaulting to unpruned grid for atomic number  50.
 Defaulting to unpruned grid for atomic number  50.
 Defaulting to unpruned grid for atomic number  50.
 Defaulting to unpruned grid for atomic number  50.
 Defaulting to unpruned grid for atomic number  50.
 Defaulting to unpruned grid for atomic number  50.
 Defaulting to unpruned grid for atomic number  50.
 Defaulting to unpruned grid for atomic number  50.
 FoFCou: FMM=F IPFlag=           0 FMFlag=      100000 FMFlg1=           0
         NFxFlg=           0 DoJE=T BraDBF=F KetDBF=T FulRan=T
         Omega=  0.000000  0.000000  1.000000  0.000000  0.000000 ICntrl=     500 IOpCl=  0
         NMat0=    1 NMatS0=    1 NMatT0=    0 NMatD0=    1 NMtDS0=    0 NMtDT0=    0
         I1Cent=           4 NGrid=           0.
 Petite list used in FoFCou.
 Requested convergence on RMS density matrix=1.00D-08 within 128 cycles.
 Requested convergence on MAX density matrix=1.00D-06.
 Requested convergence on             energy=1.00D-06.
 No special actions if energy rises.
 Keep R1 ints in memory in canonical form, NReq=2397586.
 SCF Done:  E(RHF) =  -196.784195463     A.U. after   12 cycles
             Convg  =    0.9645D-08             -V/T =  2.0726
 ExpMin= 6.30D-02 ExpMax= 1.00D+04 ExpMxC= 3.50D+02 IAcc=3 IRadAn=         5 AccDes= 0.00D+00
 HarFok:  IExCor=  205 AccDes= 0.00D+00 IRadAn=         5 IDoV=-2
 ScaDFX=  1.000000  1.000000  1.000000  1.000000
 Defaulting to unpruned grid for atomic number  50.
 Defaulting to unpruned grid for atomic number  50.
 Defaulting to unpruned grid for atomic number  50.
 Defaulting to unpruned grid for atomic number  50.
 Defaulting to unpruned grid for atomic number  50.
 Defaulting to unpruned grid for atomic number  50.
 Defaulting to unpruned grid for atomic number  50.
 Defaulting to unpruned grid for atomic number  50.
 Defaulting to unpruned grid for atomic number  50.
 Defaulting to unpruned grid for atomic number  50.
 Defaulting to unpruned grid for atomic number  50.
 Defaulting to unpruned grid for atomic number  50.
 Defaulting to unpruned grid for atomic number  50.
 Defaulting to unpruned grid for atomic number  50.
 Defaulting to unpruned grid for atomic number  50.
 Defaulting to unpruned grid for atomic number  50.
 Defaulting to unpruned grid for atomic number  50.
 Defaulting to unpruned grid for atomic number  50.
 Defaulting to unpruned grid for atomic number  50.
 Defaulting to unpruned grid for atomic number  50.
 Range of M.O.s used for correlation:     4    59
 NBasis=    59 NAE=    20 NBE=    20 NFC=     3 NFV=     0
 NROrb=     56 NOA=    17 NOB=    17 NVA=    39 NVB=    39
 Fully direct method using O(ONN) memory.
 JobTyp=1 Pass  1:  I=   4 to  20 NPSUse= 20 ParTrn=T ParDer=T DoDerP=T.
 Spin components of T(2) and E(2):
     alpha-alpha T2 =       0.2192800145D-01 E2=     -0.4677608480D-01
     alpha-beta  T2 =       0.1679092566D+00 E2=     -0.3208432078D+00
     beta-beta   T2 =       0.2192800145D-01 E2=     -0.4677608480D-01
 ANorm=    0.1100802098D+01
 E2 =    -0.4143953774D+00 EUMP2 =    -0.19719859084015D+03
          IDoAtm=1111111111
          Differentiating once with respect to electric field.
                with respect to dipole field.
          Differentiating once with respect to nuclear coordinates.
          Keep R1 ints in memory in canonical form, NReq=2368185.
          There are     1 degrees of freedom in the 1st order CPHF.  IDoFFX=0.
 LinEq1:  Iter=  0 NonCon=     1 RMS=9.69D-03 Max=9.51D-02
 AX will form     1 AO Fock derivatives at one time.
 LinEq1:  Iter=  1 NonCon=     1 RMS=3.90D-03 Max=3.55D-02
 LinEq1:  Iter=  2 NonCon=     1 RMS=1.32D-03 Max=1.52D-02
 LinEq1:  Iter=  3 NonCon=     1 RMS=4.08D-04 Max=3.44D-03
 LinEq1:  Iter=  4 NonCon=     1 RMS=1.49D-04 Max=1.33D-03
 LinEq1:  Iter=  5 NonCon=     1 RMS=4.90D-05 Max=3.29D-04
 LinEq1:  Iter=  6 NonCon=     1 RMS=1.58D-05 Max=1.10D-04
 LinEq1:  Iter=  7 NonCon=     1 RMS=4.72D-06 Max=5.51D-05
 LinEq1:  Iter=  8 NonCon=     1 RMS=9.56D-07 Max=7.65D-06
 LinEq1:  Iter=  9 NonCon=     1 RMS=2.66D-07 Max=4.42D-06
 LinEq1:  Iter= 10 NonCon=     1 RMS=6.25D-08 Max=5.03D-07
 LinEq1:  Iter= 11 NonCon=     1 RMS=1.53D-08 Max=1.36D-07
 LinEq1:  Iter= 12 NonCon=     1 RMS=3.02D-09 Max=1.63D-08
 LinEq1:  Iter= 13 NonCon=     1 RMS=5.54D-10 Max=5.00D-09
 LinEq1:  Iter= 14 NonCon=     0 RMS=9.40D-11 Max=6.35D-10
 Linear equations converged to 1.000D-10 1.000D-09 after    14 iterations.
 End of Minotr Frequency-dependent properties file   721 does not exist.
 End of Minotr Frequency-dependent properties file   722 does not exist.
   1 Symmetry operations used in ECPInt.
 ECPInt:  NShTT=     630 NPrTT=    3262 LenC2=     622 LenP2D=    2677.
 LDataN:  DoStor=T MaxTD1= 5 Len=  102
 Calling FoFJK, ICntrl=      2127 FMM=F ISym2X=0 I1Cent= 0 IOpClX= 0 NMat=1 NMatS=1 NMatT=0.
 ***** Axes restored to original set *****
 -------------------------------------------------------------------
 Center     Atomic                   Forces (Hartrees/Bohr)
 Number     Number              X              Y              Z
 -------------------------------------------------------------------
      1        6          -0.000546552   -0.000701105    0.000076613
      2        6           0.000899159    0.000583738   -0.000599376
      3        1           0.000060384    0.000075080    0.000132508
      4        1           0.000004078    0.000003522   -0.000210324
      5        1          -0.000033069   -0.000010550    0.000299361
      6       50          -0.000278370    0.000412309    0.000377953
      7       50          -0.000064607   -0.000361338   -0.000222423
      8        9           0.000315510   -0.000095387   -0.000010236
      9        1          -0.000444011    0.000221630    0.000138576
     10       35           0.000087478   -0.000127899    0.000017348
 -------------------------------------------------------------------
 Cartesian Forces:  Max     0.000899159 RMS     0.000338607

 GradGradGradGradGradGradGradGradGradGradGradGradGradGradGradGradGradGrad
 Berny optimization.
 Using GEDIIS/GDIIS optimizer.
 Internal  Forces:  Max     0.001013971 RMS     0.000346960
 Search for a local minimum.
 Step number   4 out of a maximum of   43
 All quantities printed in internal units (Hartrees-Bohrs-Radians)
 Mixed Optimization -- En-DIIS/RFO-DIIS
 Swaping is turned off.
 Update second derivatives using D2CorX and points    1    2    3    4
 DE= -5.57D-05 DEPred=-8.01D-05 R= 6.95D-01
 SS=  1.41D+00  RLast= 1.46D-01 DXNew= 8.4853D-01 4.3870D-01
 Trust test= 6.95D-01 RLast= 1.46D-01 DXMaxT set to 5.05D-01
     Eigenvalues ---    0.00180   0.00414   0.01633   0.02802   0.03086
     Eigenvalues ---    0.03098   0.04558   0.06766   0.10731   0.12094
     Eigenvalues ---    0.12188   0.12252   0.12358   0.12865   0.15709
     Eigenvalues ---    0.16172   0.16215   0.19691   0.23322   0.24028
     Eigenvalues ---    0.27750   0.37335   0.40802   0.623651000.00000
     Eigenvalues --- 1000.000001000.000001000.000001000.000001000.00000
     Eigenvalues --- 1000.000001000.000001000.00000
 En-DIIS/RFO-DIIS IScMMF=        0 using points:     4    3
 RFO step:  Lambda=-1.42434184D-05.
 DIIS coeffs:      0.77142      0.22858
 Iteration  1 RMS(Cart)=  0.07332474 RMS(Int)=  0.00225410
 Iteration  2 RMS(Cart)=  0.00251497 RMS(Int)=  0.00000510
 Iteration  3 RMS(Cart)=  0.00000307 RMS(Int)=  0.00000482
 Iteration  4 RMS(Cart)=  0.00000000 RMS(Int)=  0.00000482
 Variable       Old X    -DE/DX   Delta X   Delta X   Delta X     New X
                                  (DIIS)     (GDIIS)  (Total)
    R1        2.57745  -0.00076   0.00061  -0.00214  -0.00154   2.57592
    R2        2.71719  -0.00029  -0.00304   0.01361   0.01057   2.72776
    R3        2.06363  -0.00034   0.00056  -0.00207  -0.00150   2.06212
    R4        4.08914   0.00030   0.00116  -0.00246  -0.00129   4.08784
    R5        3.77943   0.00015   0.00046  -0.00119  -0.00073   3.77870
    R6        3.27127  -0.00005   0.00129  -0.00492  -0.00363   3.26764
    R7        3.28024  -0.00006   0.00104  -0.00411  -0.00307   3.27716
    R8        3.27254   0.00012   0.00112  -0.00326  -0.00214   3.27040
    R9        5.16408   0.00040   0.00245  -0.00824  -0.00579   5.15829
    A1        2.07442   0.00004   0.00238  -0.01005  -0.00767   2.06675
    A2        2.26899   0.00037  -0.00331   0.01529   0.01198   2.28096
    A3        1.93977  -0.00040   0.00093  -0.00524  -0.00431   1.93546
    A4        2.19393  -0.00101   0.00188  -0.01098  -0.00910   2.18482
    A5        2.02116   0.00057   0.00027   0.00041   0.00068   2.02184
    A6        2.06734   0.00044  -0.00216   0.01040   0.00824   2.07558
    A7        1.81811  -0.00035  -0.00233   0.00727   0.00492   1.82303
    A8        1.96152  -0.00005  -0.00058   0.00176   0.00117   1.96269
    A9        2.00736   0.00030  -0.00142   0.00722   0.00579   2.01315
   A10        1.82637   0.00001  -0.00284   0.01197   0.00913   1.83550
   A11        1.92055   0.00028   0.00048  -0.00073  -0.00025   1.92031
   A12        1.98639  -0.00044   0.00086  -0.00609  -0.00523   1.98116
    D1       -0.01501  -0.00004  -0.00008  -0.00159  -0.00167  -0.01668
    D2       -3.11406   0.00008   0.00019   0.00296   0.00314  -3.11092
    D3        3.12116  -0.00014  -0.00066  -0.00216  -0.00281   3.11835
    D4        0.02211  -0.00003  -0.00039   0.00239   0.00200   0.02411
    D5        0.54712   0.00005  -0.00957   0.05765   0.04809   0.59521
    D6        2.73129   0.00016  -0.01322   0.07258   0.05937   2.79067
    D7       -2.63803  -0.00006  -0.00979   0.05276   0.04296  -2.59508
    D8       -0.45386   0.00004  -0.01344   0.06769   0.05424  -0.39962
    D9        3.02469   0.00042   0.01187   0.06908   0.08095   3.10563
   D10        0.98141   0.00050   0.01459   0.05831   0.07290   1.05432
   D11       -1.18210   0.00014   0.00736   0.08530   0.09266  -1.08944
   D12        3.05781   0.00022   0.01008   0.07453   0.08461  -3.14076
         Item               Value     Threshold  Converged?
 Maximum Force            0.001014     0.000450     NO 
 RMS     Force            0.000347     0.000300     NO 
 Maximum Displacement     0.244698     0.001800     NO 
 RMS     Displacement     0.073209     0.001200     NO 
 Predicted change in Energy=-6.644547D-05
 GradGradGradGradGradGradGradGradGradGradGradGradGradGradGradGradGradGrad

                          Input orientation:                          
 ---------------------------------------------------------------------
 Center     Atomic      Atomic             Coordinates (Angstroms)
 Number     Number       Type             X           Y           Z
 ---------------------------------------------------------------------
      1          6           0        2.305077    2.951368   -0.045051
      2          6           0        1.913346    1.647910    0.029974
      3          1           0       -1.086753    2.140020   -0.511920
      4          1           0       -2.115047   -2.110074   -0.148447
      5          1           0        0.505502   -2.744348    0.402296
      6         50           0       -0.120978    0.972669    0.321487
      7         50           0       -0.482393   -1.616868   -0.462515
      8          9           0        1.296192    3.978743    0.056211
      9          1           0        3.296364    3.390295   -0.169450
     10         35           0        3.378669    0.290576   -0.064311
 ---------------------------------------------------------------------
                    Distance matrix (angstroms):
                    1          2          3          4          5
     1  C    0.000000
     2  C    1.363116   0.000000
     3  H    3.518631   3.088109   0.000000
     4  H    6.720594   5.512007   4.387801   0.000000
     5  H    5.989972   4.627373   5.218057   2.751890   0.000000
     6  Sn   3.152038   2.163193   1.729161   3.701412   3.770308
     7  Sn   5.367778   4.079324   3.805510   1.734200   1.730619
     8  F    1.443469   2.411296   3.063021   6.982272   6.778268
     9  H    1.091229   2.233476   4.570797   7.716078   6.763849
    10  Br   2.869283   1.999604   4.853946   5.995924   4.205184
                    6          7          8          9         10
     6  Sn   0.000000
     7  Sn   2.729649   0.000000
     8  F    3.333950   5.894345   0.000000
     9  H    4.214755   6.279854   2.097113   0.000000
    10  Br   3.586310   4.324894   4.237194   3.102594   0.000000
 Stoichiometry    C2H4BrFSn2
 Framework group  C1[X(C2H4BrFSn2)]
 Deg. of freedom    24
 Full point group                 C1      NOp   1
 Largest Abelian subgroup         C1      NOp   1
 Largest concise Abelian subgroup C1      NOp   1
                         Standard orientation:                         
 ---------------------------------------------------------------------
 Center     Atomic      Atomic             Coordinates (Angstroms)
[...]
 Rotational               0.889              2.981             32.435
 Vibrational             31.519             26.002             32.077
 Vibration     1          0.593              1.986              6.653
 Vibration     2          0.594              1.981              5.277
 Vibration     3          0.605              1.946              3.372
 Vibration     4          0.614              1.916              2.843
 Vibration     5          0.628              1.869              2.349
 Vibration     6          0.633              1.855              2.237
 Vibration     7          0.659              1.772              1.772
 Vibration     8          0.700              1.651              1.352
 Vibration     9          0.705              1.637              1.315
 Vibration    10          0.722              1.590              1.198
 Vibration    11          0.759              1.488              0.993
 Vibration    12          0.817              1.340              0.768
 Vibration    13          0.831              1.308              0.727
 Vibration    14          0.966              1.017              0.438
                       Q            Log10(Q)             Ln(Q)
 Total Bot       0.596729D-01         -1.224223         -2.818878
 Total V=0       0.346429D+19         18.539614         42.689039
 Vib (Bot)       0.806432D-16        -16.093432        -37.056497
 Vib (Bot)    1  0.104550D+02          1.019322          2.347076
 Vib (Bot)    2  0.521959D+01          0.717636          1.652419
 Vib (Bot)    3  0.196607D+01          0.293598          0.676035
 Vib (Bot)    4  0.148373D+01          0.171354          0.394557
 Vib (Bot)    5  0.112883D+01          0.052628          0.121181
 Vib (Bot)    6  0.105888D+01          0.024846          0.057209
 Vib (Bot)    7  0.801611D+00         -0.096037         -0.221132
 Vib (Bot)    8  0.605706D+00         -0.217738         -0.501361
 Vib (Bot)    9  0.589488D+00         -0.229525         -0.528501
 Vib (Bot)   10  0.540448D+00         -0.267246         -0.615358
 Vib (Bot)   11  0.457659D+00         -0.339458         -0.781631
 Vib (Bot)   12  0.370556D+00         -0.431146         -0.992750
 Vib (Bot)   13  0.354734D+00         -0.450097         -1.036387
 Vib (Bot)   14  0.244186D+00         -0.612280         -1.409826
 Vib (V=0)       0.468172D+04          3.670405          8.451420
 Vib (V=0)    1  0.109669D+02          1.040084          2.394882
 Vib (V=0)    2  0.574348D+01          0.759175          1.748066
 Vib (V=0)    3  0.252865D+01          0.402889          0.927686
 Vib (V=0)    4  0.206571D+01          0.315069          0.725474
 Vib (V=0)    5  0.173461D+01          0.239201          0.550781
 Vib (V=0)    6  0.167099D+01          0.222974          0.513417
 Vib (V=0)    7  0.144476D+01          0.159797          0.367946
 Vib (V=0)    8  0.128542D+01          0.109044          0.251083
 Vib (V=0)    9  0.127298D+01          0.104821          0.241360
 Vib (V=0)   10  0.123626D+01          0.092111          0.212093
 Vib (V=0)   11  0.117783D+01          0.071082          0.163673
 Vib (V=0)   12  0.112234D+01          0.050126          0.115419
 Vib (V=0)   13  0.111305D+01          0.046517          0.107108
 Vib (V=0)   14  0.105644D+01          0.023845          0.054906
 Electronic      0.100000D+01          0.000000          0.000000
 Translational   0.270440D+09          8.432071         19.415561
 Rotational      0.273614D+07          6.437138         14.822059
 ***** Axes restored to original set *****
 -------------------------------------------------------------------
 Center     Atomic                   Forces (Hartrees/Bohr)
 Number     Number              X              Y              Z
 -------------------------------------------------------------------
      1        6          -0.000010636   -0.000002864    0.000002632
      2        6          -0.000009419    0.000020738   -0.000000942
      3        1          -0.000002846   -0.000004308   -0.000001185
      4        1           0.000002210    0.000001710   -0.000002947
      5        1          -0.000000966    0.000001098   -0.000004728
      6       50           0.000009238    0.000006548   -0.000000612
      7       50          -0.000004237   -0.000001336    0.000008037
      8        9           0.000014022   -0.000017969   -0.000001370
      9        1          -0.000005875   -0.000002078    0.000000422
     10       35           0.000008508   -0.000001539    0.000000694
 -------------------------------------------------------------------
 Cartesian Forces:  Max     0.000020738 RMS     0.000007224

 GradGradGradGradGradGradGradGradGradGradGradGradGradGradGradGradGradGrad
 Berny optimization.
 Internal  Forces:  Max     0.000022728 RMS     0.000007303
 Search for a local minimum.
 Step number   1 out of a maximum of    2
 All quantities printed in internal units (Hartrees-Bohrs-Radians)
 Second derivative matrix not updated -- analytic derivatives used.
     Eigenvalues ---    0.00161   0.00745   0.01535   0.01697   0.02280
     Eigenvalues ---    0.03301   0.04741   0.05087   0.06715   0.07540
     Eigenvalues ---    0.07875   0.09105   0.10569   0.11393   0.12673
     Eigenvalues ---    0.13095   0.13128   0.13203   0.14981   0.18822
     Eigenvalues ---    0.21001   0.31251   0.36919   0.557961000.00000
     Eigenvalues --- 1000.000001000.000001000.000001000.000001000.00000
     Eigenvalues --- 1000.000001000.000001000.00000
 Angle between quadratic step and forces=  65.47 degrees.
 Linear search not attempted -- first point.
 Iteration  1 RMS(Cart)=  0.00043670 RMS(Int)=  0.00000007
 Iteration  2 RMS(Cart)=  0.00000009 RMS(Int)=  0.00000001
 Variable       Old X    -DE/DX   Delta X   Delta X   Delta X     New X
                                 (Linear)    (Quad)   (Total)
    R1        2.57571  -0.00002   0.00000  -0.00003  -0.00003   2.57568
    R2        2.71833  -0.00002   0.00000  -0.00008  -0.00008   2.71826
    R3        2.06261  -0.00001   0.00000  -0.00002  -0.00002   2.06259
    R4        4.09299   0.00000   0.00000  -0.00007  -0.00007   4.09293
    R5        3.77667   0.00001   0.00000   0.00005   0.00005   3.77672
    R6        3.27146   0.00000   0.00000   0.00000   0.00000   3.27146
    R7        3.28080   0.00000   0.00000  -0.00004  -0.00004   3.28077
    R8        3.27388   0.00000   0.00000  -0.00004  -0.00004   3.27384
    R9        5.17008   0.00000   0.00000  -0.00006  -0.00006   5.17002
    A1        2.07209   0.00000   0.00000   0.00000   0.00000   2.07209
    A2        2.27457   0.00000   0.00000  -0.00001  -0.00001   2.27455
    A3        1.93650   0.00000   0.00000   0.00001   0.00001   1.93652
    A4        2.17823   0.00000   0.00000   0.00000   0.00000   2.17823
    A5        2.02670  -0.00001   0.00000  -0.00004  -0.00004   2.02666
    A6        2.07719   0.00001   0.00000   0.00004   0.00004   2.07722
    A7        1.81206   0.00000   0.00000   0.00010   0.00010   1.81216
    A8        1.96459   0.00001   0.00000   0.00010   0.00010   1.96469
    A9        2.00932  -0.00001   0.00000  -0.00034  -0.00034   2.00898
   A10        1.82450   0.00000   0.00000   0.00007   0.00007   1.82457
   A11        1.91936   0.00000   0.00000   0.00004   0.00004   1.91940
   A12        1.97994   0.00001   0.00000   0.00027   0.00027   1.98022
    D1       -0.01760   0.00000   0.00000  -0.00006  -0.00006  -0.01766
    D2       -3.10883   0.00000   0.00000   0.00001   0.00001  -3.10882
    D3        3.11623   0.00000   0.00000  -0.00004  -0.00004   3.11619
    D4        0.02500   0.00000   0.00000   0.00003   0.00003   0.02503
    D5        0.60465   0.00000   0.00000  -0.00013  -0.00013   0.60452
    D6        2.78896   0.00000   0.00000  -0.00042  -0.00042   2.78854
    D7       -2.58865   0.00000   0.00000  -0.00020  -0.00020  -2.58885
    D8       -0.40434   0.00000   0.00000  -0.00049  -0.00049  -0.40483
    D9        3.05590   0.00000   0.00000   0.00028   0.00028   3.05617
   D10        1.01984  -0.00001   0.00000   0.00000   0.00000   1.01984
   D11       -1.15512   0.00001   0.00000   0.00024   0.00024  -1.15487
   D12        3.09202   0.00000   0.00000  -0.00004  -0.00004   3.09198
         Item               Value     Threshold  Converged?
 Maximum Force            0.000023     0.000450     YES
 RMS     Force            0.000007     0.000300     YES
 Maximum Displacement     0.001077     0.001800     YES
 RMS     Displacement     0.000437     0.001200     YES
 Predicted change in Energy=-8.019223D-09
 Optimization completed.
    -- Stationary point found.
                           ----------------------------
                           !   Optimized Parameters   !
                           ! (Angstroms and Degrees)  !
 --------------------------                            --------------------------
 ! Name  Definition              Value          Derivative Info.                !
 --------------------------------------------------------------------------------
 ! R1    R(1,2)                  1.363          -DE/DX =    0.0                 !
 ! R2    R(1,8)                  1.4385         -DE/DX =    0.0                 !
 ! R3    R(1,9)                  1.0915         -DE/DX =    0.0                 !
 ! R4    R(2,6)                  2.1659         -DE/DX =    0.0                 !
 ! R5    R(2,10)                 1.9985         -DE/DX =    0.0                 !
 ! R6    R(3,6)                  1.7312         -DE/DX =    0.0                 !
 ! R7    R(4,7)                  1.7361         -DE/DX =    0.0                 !
 ! R8    R(5,7)                  1.7325         -DE/DX =    0.0                 !
 ! R9    R(6,7)                  2.7359         -DE/DX =    0.0                 !
 ! A1    A(2,1,8)              118.7223         -DE/DX =    0.0                 !
 ! A2    A(2,1,9)              130.323          -DE/DX =    0.0                 !
 ! A3    A(8,1,9)              110.9535         -DE/DX =    0.0                 !
 ! A4    A(1,2,6)              124.8035         -DE/DX =    0.0                 !
 ! A5    A(1,2,10)             116.1212         -DE/DX =    0.0                 !
 ! A6    A(6,2,10)             119.0141         -DE/DX =    0.0                 !
 ! A7    A(2,6,3)              103.8234         -DE/DX =    0.0                 !
 ! A8    A(2,6,7)              112.563          -DE/DX =    0.0                 !
 ! A9    A(3,6,7)              115.1253         -DE/DX =    0.0                 !
 ! A10   A(4,7,5)              104.5361         -DE/DX =    0.0                 !
 ! A11   A(4,7,6)              109.9714         -DE/DX =    0.0                 !
 ! A12   A(5,7,6)              113.4423         -DE/DX =    0.0                 !
 ! D1    D(8,1,2,6)             -1.0084         -DE/DX =    0.0                 !
 ! D2    D(8,1,2,10)          -178.1229         -DE/DX =    0.0                 !
 ! D3    D(9,1,2,6)            178.5471         -DE/DX =    0.0                 !
 ! D4    D(9,1,2,10)             1.4326         -DE/DX =    0.0                 !
 ! D5    D(1,2,6,3)             34.6439         -DE/DX =    0.0                 !
 ! D6    D(1,2,6,7)            159.7957         -DE/DX =    0.0                 !
 ! D7    D(10,2,6,3)          -148.3188         -DE/DX =    0.0                 !
 ! D8    D(10,2,6,7)           -23.167          -DE/DX =    0.0                 !
 ! D9    D(2,6,7,4)            175.0899         -DE/DX =    0.0                 !
 ! D10   D(2,6,7,5)             58.4326         -DE/DX =    0.0                 !
 ! D11   D(3,6,7,4)            -66.1833         -DE/DX =    0.0                 !
 ! D12   D(3,6,7,5)            177.1594         -DE/DX =    0.0                 !
 --------------------------------------------------------------------------------
 GradGradGradGradGradGradGradGradGradGradGradGradGradGradGradGradGradGrad

 1\1\GINC-MALLOS73\Freq\RMP2-FC\LANL2DZ\C2H4Br1F1Sn2\MARLIN\24-Oct-2024
 \0\\#N Geom=AllCheck Guess=TCheck SCRF=Check GenChk RMP2(FC)/LANL2DZ F
 req\\Title Card Required\\0,1\C,2.3009484933,2.9520264591,-0.039936627
 8\C,1.913201618,1.6473708839,0.0329510877\H,-1.0694242898,2.1498751512
 ,-0.5427360195\H,-2.1151658093,-2.1246667135,-0.0912116205\H,0.5195874
 767,-2.7418136657,0.3589149138\Sn,-0.1272695983,0.9780579213,0.3152720
 789\Sn,-0.5000444721,-1.6151121359,-0.47314529\F,1.2969833035,3.977879
 9939,0.0544306587\H,3.2945993589,3.3880045114,-0.1579283969\Br,3.37656
 2869,0.2886694144,-0.0483376745\\Version=EM64L-G09RevA.01\State=1-A\HF
 =-196.7843145\MP2=-197.1986369\RMSD=9.072e-10\RMSF=7.224e-06\ZeroPoint
 =0.0429679\Thermal=0.0530616\Dipole=0.081073,-0.3020543,-0.0873786\Dip
 oleDeriv=0.0552742,-0.5362869,-0.0422428,-0.0285798,1.0999069,0.046520
 1,-0.0209676,0.0090751,0.0504901,-0.0291813,-0.3417229,-0.0035876,-0.4
 118012,-0.4393478,0.0276817,0.169979,0.3264749,-0.2723561,-0.3200911,-
 0.0253921,-0.011608,0.043203,-0.2552342,0.0783104,-0.026091,0.3031787,
 -0.0757702,-0.3563803,-0.1366693,-0.0301519,-0.113542,-0.2589579,0.061
 6722,0.1281809,0.283573,-0.077825,-0.2279898,-0.0011,0.0008422,0.04655
 85,-0.3223272,0.0897146,0.008621,0.3383271,-0.0854677,1.0000764,0.3798
 353,0.0488134,0.2864601,0.6859748,-0.1522325,-0.1575235,-0.5745121,0.2
 839856,0.5949646,0.1272282,0.0143876,0.0410311,0.5878495,-0.1458534,-0
 .1478153,-0.6276694,0.1793309,-0.3441956,0.4821172,0.0281313,0.1415099
 ,-0.9496599,-0.0249325,0.0411875,-0.013849,-0.2002197,-0.0090937,-0.00
 01878,0.024181,-0.081133,-0.0458234,0.0089649,-0.0119124,-0.0442846,0.
 2113668,-0.3633835,0.0521783,-0.0287652,0.0762934,-0.1023808,0.0101545
 ,0.0163416,-0.0003137,-0.0135348\Polar=113.4150596,12.9200023,177.7568
 787,9.1998905,31.7280423,60.2941034\PG=C01 [X(C2H4Br1F1Sn2)]\NImag=0\\
 0.58449272,0.16611487,0.70553522,-0.05786071,-0.03284435,0.10451175,-0
 .12200660,-0.11862035,0.01172464,0.28896857,-0.14629418,-0.45143674,0.
 02589131,0.10316106,0.58763960,0.01437856,0.02321534,-0.04137888,-0.02
 867416,-0.02921587,0.05881161,-0.00009805,0.00119520,0.00015711,-0.002
 98172,0.00580557,-0.00517266,0.04761024,0.00223016,-0.00179234,-0.0000
 4428,-0.00085384,0.00302503,-0.00128071,-0.04331063,0.06728834,-0.0004
 0349,-0.00014430,-0.00022191,0.00183573,0.00015583,0.00086714,0.032482
 80,-0.04158697,0.03491754,-0.00003950,0.00032392,-0.00002944,0.0001614
 6,0.00004085,-0.00031015,0.00011000,-0.00026481,-0.00016692,0.11438749
 ,-0.00101711,0.00035539,0.00015083,0.00038556,-0.00214552,-0.00207774,
 0.00042386,-0.00058274,-0.00108663,0.03192646,0.02168327,-0.00064247,-
 0.00015395,0.00015308,-0.00043947,-0.00168465,0.00110333,0.00018784,-0
 .00112280,-0.00079229,-0.02226431,-0.00951272,0.01164421,0.00030027,-0
 .00000463,-0.00004262,-0.00004169,0.00049953,-0.00017348,0.00021172,-0
 .00030169,-0.00072529,-0.00538915,0.00643538,-0.00524907,0.05480650,-0
 .00004367,-0.00001916,0.00005358,0.00027666,-0.00054914,-0.00133200,-0
 .00029215,-0.00171002,-0.00200352,-0.00216545,0.00269449,-0.00064131,-
 0.04552939,0.06127361,0.00039489,-0.00048797,0.00011470,-0.00021435,-0
 .00023781,-0.00111614,-0.00070951,-0.00183298,0.00073229,0.00255849,-0
 .00098176,0.00084496,0.03387395,-0.03851309,0.03275374,-0.00142530,-0.
 00542697,0.00107560,-0.10122804,-0.03132491,0.01740195,-0.04277171,0.0
 4364973,-0.03515848,-0.00074984,-0.00475299,-0.00199698,0.00017791,0.0
 0316635,0.00052700,0.16502868,-0.02028771,0.00092566,0.00203356,-0.031
 01428,-0.03124593,0.01205241,0.03776400,-0.06875399,0.04828925,0.00193
 712,0.00350809,-0.00134029,-0.00059686,0.00175519,-0.00263257,0.002794
 10,0.17746276,0.00092516,0.00076790,0.00400377,0.00886062,0.00373553,-
 0.01941361,-0.02783009,0.03792466,-0.03693038,0.00198621,0.00609193,-0
 .00003667,0.00109711,0.00795095,0.00122000,0.02073784,-0.03671979,0.06
 210292,-0.00264585,0.00054479,0.00030803,-0.00011211,-0.00551934,-0.00
 152917,0.00052465,0.00278887,0.00099631,-0.10847847,-0.03381743,0.0298
 6581,-0.05010539,0.04504611,-0.03649435,-0.00891022,-0.00835934,-0.004
 02189,0.16916954,0.00191640,-0.00019050,-0.00020379,0.00085397,0.00265
 466,-0.00100033,-0.00033180,0.00208876,-0.00285181,-0.03135802,-0.0250
 1227,0.01461283,0.03977521,-0.06335939,0.04483970,-0.01002972,-0.07788
 111,-0.01928339,-0.00023906,0.16095718,0.00077747,0.00080814,-0.000330
 36,0.00182934,0.00432175,0.00108375,0.00054814,0.00775336,0.00103807,0
 .01821696,0.00724669,-0.01288243,-0.02891505,0.03431677,-0.03446741,-0
 .00272026,-0.01897608,-0.01287158,0.01118037,-0.03628729,0.05838627,-0
 .14737741,0.08042271,0.01207469,0.00388267,0.00654244,-0.00105908,-0.0
 0002247,-0.00272784,0.00014634,0.00007075,0.00007407,0.00004518,0.0000
 1601,-0.00029378,-0.00022096,-0.00397531,0.00397844,-0.00078856,0.0005
 3053,-0.00012396,0.00047745,0.16462072,0.08608918,-0.13506752,-0.00760
 174,0.03306919,-0.03688764,-0.00185571,-0.00124486,-0.00027127,-0.0003
 2267,-0.00022956,-0.00019572,0.00005538,-0.00016570,-0.00008540,0.0000
 8786,0.00320602,-0.00030867,-0.00096989,0.00028345,0.00029748,-0.00000
 473,-0.12111917,0.18001959,0.01118147,-0.00648130,-0.02890177,-0.00060
 750,-0.00036940,0.00365208,-0.00058590,-0.00020090,0.00037276,-0.00003
 376,-0.00019780,0.00009541,0.00001161,-0.00012506,-0.00015782,0.000348
 59,-0.00024343,-0.00336848,-0.00020857,-0.00000304,0.00023657,-0.01325
 559,0.01088940,0.01716942,-0.29824689,-0.12268401,0.03157343,0.0030927
 0,0.00937087,0.00063263,0.00000751,-0.00021472,0.00005194,0.00000572,0
 .00007793,0.00001233,-0.00001175,-0.00001128,0.00000786,0.00020874,0.0
 0106221,0.00023961,0.00019719,-0.00006907,-0.00007056,-0.02065259,-0.0
 0004979,0.00282079,0.31383330,-0.12319684,-0.10020659,0.01526487,-0.02
 569088,-0.00459364,0.00312185,-0.00006553,0.00018889,-0.00001288,-0.00
 000083,-0.00025298,-0.00025728,0.00005950,-0.00006048,-0.00000610,0.00
 055502,-0.00205823,-0.00022822,-0.00048889,0.00059271,0.00054614,0.034
 81517,-0.00344887,-0.00390251,0.11353835,0.10965347,0.03134240,0.01512
 754,-0.03791958,0.00151741,-0.00024248,0.01039012,0.00076000,0.0002286
 0,-0.00021464,0.00005076,0.00033190,-0.00023251,0.00002362,0.00020484,
 0.00016573,-0.00070624,-0.00095672,0.00402211,0.00026704,0.00009987,-0
 .00008597,0.00208819,-0.00036533,0.00385382,-0.03481487,-0.01439420,0.
 02299757,-0.01295341,-0.00186553,0.00101927,-0.06973525,0.05771811,0.0
 0450558,-0.00259017,-0.00099522,0.00094108,-0.00007847,0.00026425,0.00
 048114,0.00003557,-0.00015340,0.00027697,-0.00635490,0.01272232,-0.001
 20601,-0.00016986,-0.00039396,-0.00132386,0.00290710,0.00016125,0.0003
 2887,0.00156607,0.00047493,-0.00052831,0.08737332,0.03448889,-0.018103
 42,-0.00269999,0.03843291,-0.06646067,-0.00162725,0.00005633,0.0005193
 4,-0.00043630,-0.00020968,-0.00005201,0.00004478,-0.00017136,0.0000602
 9,-0.00023527,-0.00183662,-0.00340377,0.00073032,-0.00023915,-0.000147
 53,0.00027525,-0.00156808,-0.00405199,0.00063404,-0.00102050,0.0001857
 2,-0.00003400,-0.06793275,0.09145404,-0.00009328,0.00019294,-0.0000307
 9,0.00416773,-0.00235420,-0.01399940,0.00016226,0.00016202,0.00023142,
 -0.00000784,0.00003529,0.00010292,0.00009923,0.00008884,-0.00009004,0.
 00049099,-0.00150634,0.00127193,-0.00036355,0.00007726,-0.00010689,0.0
 0049235,0.00008743,0.00704801,-0.00045316,-0.00013166,-0.00297665,-0.0
 0449474,0.00334842,0.00854949\\0.00001064,0.00000286,-0.00000263,0.000
 00942,-0.00002074,0.00000094,0.00000285,0.00000431,0.00000118,-0.00000
 221,-0.00000171,0.00000295,0.00000097,-0.00000110,0.00000473,-0.000009
 24,-0.00000655,0.00000061,0.00000424,0.00000134,-0.00000804,-0.0000140
 2,0.00001797,0.00000137,0.00000587,0.00000208,-0.00000042,-0.00000851,
 0.00000154,-0.00000069\\\@


 THE BEST WAY TO CONVINCE A FOOL THAT HE IS WRONG 
 IS TO LET HIM HAVE HIS OWN WAY.

                                         JOSH BILLINGS
 Job cpu time:  0 days  0 hours  3 minutes 50.8 seconds.
 File lengths (MBytes):  RWF=    145 Int=      0 D2E=      0 Chk=      1 Scr=      1
 Normal termination of Gaussian 09 at Thu Oct 24 10:20:44 2024.
