 Entering Gaussian System, Link 0=g09
 Initial command:
 /u/local/G09/g09/l1.exe /tmp/marlin/22703.mallos00.local/Gau-23982.inp -scrdir=/tmp/marlin/22703.mallos00.local/
 Entering Link 1 = /u/local/G09/g09/l1.exe PID=     23984.
  
 Copyright (c) 1988,1990,1992,1993,1995,1998,2003,2009, Gaussian, Inc.
                  All Rights Reserved.
  
 This is part of the Gaussian(R) 09 program.  It is based on
 the Gaussian(R) 03 system (copyright 2003, Gaussian, Inc.),
 the Gaussian(R) 98 system (copyright 1998, Gaussian, Inc.),
 the Gaussian(R) 94 system (copyright 1995, Gaussian, Inc.),
 the Gaussian 92(TM) system (copyright 1992, Gaussian, Inc.),
 the Gaussian 90(TM) system (copyright 1990, Gaussian, Inc.),
 the Gaussian 88(TM) system (copyright 1988, Gaussian, Inc.),
 the Gaussian 86(TM) system (copyright 1986, Carnegie Mellon
 University), and the Gaussian 82(TM) system (copyright 1983,
 Carnegie Mellon University). Gaussian is a federally registered
 trademark of Gaussian, Inc.
  
 This software contains proprietary and confidential information,
 including trade secrets, belonging to Gaussian, Inc.
  
 This software is provided under written license and may be
 used, copied, transmitted, or stored only in accord with that
 written license.
  
 The following legend is applicable only to US Government
 contracts under FAR:
  
                    RESTRICTED RIGHTS LEGEND
  
 Use, reproduction and disclosure by the US Government is
 subject to restrictions as set forth in subparagraphs (a)
 and (c) of the Commercial Computer Software - Restricted
 Rights clause in FAR 52.227-19.
  
 Gaussian, Inc.
 340 Quinnipiac St., Bldg. 40, Wallingford CT 06492
  
  
 ---------------------------------------------------------------
 Warning -- This program may not be used in any manner that
 competes with the business of Gaussian, Inc. or will provide
 assistance to any competitor of Gaussian, Inc.  The licensee
 of this program is prohibited from giving any competitor of
 Gaussian, Inc. access to this program.  By using this program,
 the user acknowledges that Gaussian, Inc. is engaged in the
 business of creating and licensing software in the field of
 computational chemistry and represents and warrants to the
 licensee that it is not a competitor of Gaussian, Inc. and that
 it will not use this program in any manner prohibited above.
 ---------------------------------------------------------------
  

 Cite this work as:
 Gaussian 09, Revision A.01,
 M. J. Frisch, G. W. Trucks, H. B. Schlegel, G. E. Scuseria, 
 M. A. Robb, J. R. Cheeseman, G. Scalmani, V. Barone, B. Mennucci, 
 G. A. Petersson, H. Nakatsuji, M. Caricato, X. Li, H. P. Hratchian, 
 A. F. Izmaylov, J. Bloino, G. Zheng, J. L. Sonnenberg, M. Hada, 
 M. Ehara, K. Toyota, R. Fukuda, J. Hasegawa, M. Ishida, T. Nakajima, 
 Y. Honda, O. Kitao, H. Nakai, T. Vreven, J. A. Montgomery, Jr., 
 J. E. Peralta, F. Ogliaro, M. Bearpark, J. J. Heyd, E. Brothers, 
 K. N. Kudin, V. N. Staroverov, R. Kobayashi, J. Normand, 
 K. Raghavachari, A. Rendell, J. C. Burant, S. S. Iyengar, J. Tomasi, 
 M. Cossi, N. Rega, J. M. Millam, M. Klene, J. E. Knox, J. B. Cross, 
 V. Bakken, C. Adamo, J. Jaramillo, R. Gomperts, R. E. Stratmann, 
 O. Yazyev, A. J. Austin, R. Cammi, C. Pomelli, J. W. Ochterski, 
 R. L. Martin, K. Morokuma, V. G. Zakrzewski, G. A. Voth, 
 P. Salvador, J. J. Dannenberg, S. Dapprich, A. D. Daniels, 
 O. Farkas, J. B. Foresman, J. V. Ortiz, J. Cioslowski, 
 and D. J. Fox, Gaussian, Inc., Wallingford CT, 2009.
 
 ******************************************
 Gaussian 09:  EM64L-G09RevA.01  8-May-2009
                24-Oct-2024 
 ******************************************
 %mem=206GB
 %nproc=20
 Will use up to   20 processors via shared memory.
 %chk=5-sdd.chk
 ---------------------------------------
 # opt freq=noraman hf/sdd geom=allcheck
 ---------------------------------------
 1/18=20,19=15,29=7,38=1/1,3;
 2/9=110,12=2,40=1/2;
 3/5=17,6=7,11=9,14=-4,16=1,25=1,30=1,71=1/1,2,3;
 4//1;
 5/5=2,38=5/2;
 6/7=2,8=2,9=2,10=2,28=1/1;
 7//1,2,3,16;
 1/18=20,19=15/3(2);
 2/9=110/2;
 99//99;
 2/9=110/2;
 3/5=17,6=7,11=9,14=-2,16=1,25=1,30=1,71=1/1,2,3;
 4/5=5,16=3/1;
 5/5=2,38=5/2;
 7//1,2,3,16;
 1/18=20,19=15/3(-5);
 2/9=110/2;
 6/7=2,8=2,9=2,10=2,19=2,28=1/1;
 99/9=1/99;
 -------------------
 Title Card Required
 -------------------
 Redundant internal coordinates taken from checkpoint file:
 5-sdd.chk
 Charge =  0 Multiplicity = 1
 C,0,2.284698811,2.9527079831,-0.0931865715
 C,0,1.8947159824,1.6994359447,0.0880330586
 H,0,-1.0365787724,2.1853379723,-0.3982806798
 H,0,-2.0854365846,-2.1690627197,-0.1241083607
 H,0,0.4843188032,-2.8049873683,0.2343376677
 Sn,0,-0.11885172,0.9911649574,0.4299282605
 Sn,0,-0.5011149471,-1.6132478395,-0.520560787
 F,0,1.3459878976,3.9686603849,-0.1064832285
 H,0,3.2737752651,3.3366724649,-0.2324629065
 Br,0,3.3484642148,0.3536100402,0.1310566572
 Recover connectivity data from disk.

 GradGradGradGradGradGradGradGradGradGradGradGradGradGradGradGradGradGrad
 Berny optimization.
 Initialization pass.
                           ----------------------------
                           !    Initial Parameters    !
                           ! (Angstroms and Degrees)  !
 --------------------------                            --------------------------
 ! Name  Definition              Value          Derivative Info.                !
 --------------------------------------------------------------------------------
 ! R1    R(1,2)                  1.325          estimate D2E/DX2                !
 ! R2    R(1,8)                  1.3833         estimate D2E/DX2                !
 ! R3    R(1,9)                  1.0701         estimate D2E/DX2                !
 ! R4    R(2,6)                  2.1617         estimate D2E/DX2                !
 ! R5    R(2,10)                 1.9815         estimate D2E/DX2                !
 ! R6    R(3,6)                  1.7188         estimate D2E/DX2                !
 ! R7    R(4,7)                  1.7252         estimate D2E/DX2                !
 ! R8    R(5,7)                  1.7208         estimate D2E/DX2                !
 ! R9    R(6,7)                  2.7987         estimate D2E/DX2                !
 ! A1    A(2,1,8)              119.7534         estimate D2E/DX2                !
 ! A2    A(2,1,9)              128.9937         estimate D2E/DX2                !
 ! A3    A(8,1,9)              111.2506         estimate D2E/DX2                !
 ! A4    A(1,2,6)              127.2789         estimate D2E/DX2                !
 ! A5    A(1,2,10)             115.433          estimate D2E/DX2                !
 ! A6    A(6,2,10)             117.2198         estimate D2E/DX2                !
 ! A7    A(2,6,3)              101.1571         estimate D2E/DX2                !
 ! A8    A(2,6,7)              112.2356         estimate D2E/DX2                !
 ! A9    A(3,6,7)              114.2033         estimate D2E/DX2                !
 ! A10   A(4,7,5)              101.652          estimate D2E/DX2                !
 ! A11   A(4,7,6)              110.3167         estimate D2E/DX2                !
 ! A12   A(5,7,6)              114.6624         estimate D2E/DX2                !
 ! D1    D(8,1,2,6)             -1.5988         estimate D2E/DX2                !
 ! D2    D(8,1,2,10)          -178.4874         estimate D2E/DX2                !
 ! D3    D(9,1,2,6)            177.7999         estimate D2E/DX2                !
 ! D4    D(9,1,2,10)             0.9112         estimate D2E/DX2                !
 ! D5    D(1,2,6,3)             28.9481         estimate D2E/DX2                !
 ! D6    D(1,2,6,7)            151.0938         estimate D2E/DX2                !
 ! D7    D(10,2,6,3)          -154.2117         estimate D2E/DX2                !
 ! D8    D(10,2,6,7)           -32.066          estimate D2E/DX2                !
 ! D9    D(2,6,7,4)            176.0074         estimate D2E/DX2                !
 ! D10   D(2,6,7,5)             61.9921         estimate D2E/DX2                !
 ! D11   D(3,6,7,4)            -69.6023         estimate D2E/DX2                !
 ! D12   D(3,6,7,5)            176.3823         estimate D2E/DX2                !
 --------------------------------------------------------------------------------
 Trust Radius=3.00D-01 FncErr=1.00D-07 GrdErr=1.00D-07
 Number of steps in this run=  43 maximum allowed number of steps= 100.
 GradGradGradGradGradGradGradGradGradGradGradGradGradGradGradGradGradGrad

                          Input orientation:                          
 ---------------------------------------------------------------------
 Center     Atomic      Atomic             Coordinates (Angstroms)
 Number     Number       Type             X           Y           Z
 ---------------------------------------------------------------------
      1          6           0        2.284699    2.952708   -0.093187
      2          6           0        1.894716    1.699436    0.088033
      3          1           0       -1.036579    2.185338   -0.398281
      4          1           0       -2.085437   -2.169063   -0.124108
      5          1           0        0.484319   -2.804987    0.234338
      6         50           0       -0.118852    0.991165    0.429928
      7         50           0       -0.501115   -1.613248   -0.520561
      8          9           0        1.345988    3.968660   -0.106483
      9          1           0        3.273775    3.336672   -0.232463
     10         35           0        3.348464    0.353610    0.131057
 ---------------------------------------------------------------------
                    Distance matrix (angstroms):
                    1          2          3          4          5
     1  C    0.000000
     2  C    1.324997   0.000000
     3  H    3.422400   3.010829   0.000000
     4  H    6.732873   5.554449   4.487324   0.000000
     5  H    6.041498   4.722336   5.255158   2.671428   0.000000
     6  Sn   3.146165   2.161711   1.718779   3.763170   3.848746
     7  Sn   5.365758   4.133312   3.838089   1.725161   1.720812
     8  F    1.383298   2.342716   2.990319   7.031830   6.836734
     9  H    1.070093   2.164501   4.464551   7.684140   6.761579
    10  Br   2.817302   1.981535   4.781634   5.996354   4.265060
                    6          7          8          9         10
     6  Sn   0.000000
     7  Sn   2.798664   0.000000
     8  F    3.361394   5.894145   0.000000
     9  H    4.177330   6.231734   2.032645   0.000000
    10  Br   3.538090   4.371773   4.139435   3.006058   0.000000
 Stoichiometry    C2H4BrFSn2
 Framework group  C1[X(C2H4BrFSn2)]
 Deg. of freedom    24
 Full point group                 C1      NOp   1
 Largest Abelian subgroup         C1      NOp   1
 Largest concise Abelian subgroup C1      NOp   1
                         Standard orientation:                         
 ---------------------------------------------------------------------
 Center     Atomic      Atomic             Coordinates (Angstroms)
 Number     Number       Type             X           Y           Z
 ---------------------------------------------------------------------
      1          6           0        2.951653   -0.683462    0.477560
      2          6           0        1.797986   -0.142189    0.114661
      3          1           0        0.102601   -2.571708    0.651502
      4          1           0       -3.736438   -0.432997   -0.256117
      5          1           0       -2.409747    1.844756   -0.690003
      6         50           0       -0.047668   -1.173255   -0.336400
      7         50           0       -2.299267    0.391360    0.224671
      8          9           0        3.047814   -2.054605    0.633230
      9          1           0        3.887521   -0.204009    0.675988
     10         35           0        1.816419    1.825832   -0.115636
 ---------------------------------------------------------------------
 Rotational constants (GHZ):      0.8839889      0.3979056      0.2842590
 Standard basis: SDD (6D, 10F)
 There are    65 symmetry adapted basis functions of A   symmetry.
 Integral buffers will be    131072 words long.
 Raffenetti 1 integral format.
 Two-electron integral symmetry is turned on.
    65 basis functions,   139 primitive gaussians,    65 cartesian basis functions
    20 alpha electrons       20 beta electrons
       nuclear repulsion energy       133.5865360797 Hartrees.
 NAtoms=   10 NActive=   10 NUniq=   10 SFac= 7.50D-01 NAtFMM=   80 NAOKFM=F Big=F
 One-electron integrals computed using PRISM.
   1 Symmetry operations used in ECPInt.
 ECPInt:  NShTT=     780 NPrTT=    3579 LenC2=     766 LenP2D=    2862.
 LDataN:  DoStor=T MaxTD1= 5 Len=  102
 NBasis=    65 RedAO= T  NBF=    65
 NBsUse=    65 1.00D-06 NBFU=    65
 Harris functional with IExCor=  205 diagonalized for initial guess.
 ExpMin= 3.61D-02 ExpMax= 9.99D+03 ExpMxC= 1.51D+03 IAcc=3 IRadAn=         0 AccDes= 0.00D+00
 HarFok:  IExCor=  205 AccDes= 0.00D+00 IRadAn=         0 IDoV= 1
 ScaDFX=  1.000000  1.000000  1.000000  1.000000
 Defaulting to unpruned grid for atomic number  50.
 Defaulting to unpruned grid for atomic number  50.
 Defaulting to unpruned grid for atomic number  50.
 Defaulting to unpruned grid for atomic number  50.
 Defaulting to unpruned grid for atomic number  50.
 Defaulting to unpruned grid for atomic number  50.
 Defaulting to unpruned grid for atomic number  50.
 Defaulting to unpruned grid for atomic number  50.
 Defaulting to unpruned grid for atomic number  50.
 Defaulting to unpruned grid for atomic number  50.
 Defaulting to unpruned grid for atomic number  50.
 Defaulting to unpruned grid for atomic number  50.
 Defaulting to unpruned grid for atomic number  50.
 Defaulting to unpruned grid for atomic number  50.
 Defaulting to unpruned grid for atomic number  50.
 Defaulting to unpruned grid for atomic number  50.
 Defaulting to unpruned grid for atomic number  50.
 Defaulting to unpruned grid for atomic number  50.
 Defaulting to unpruned grid for atomic number  50.
 Defaulting to unpruned grid for atomic number  50.
 FoFCou: FMM=F IPFlag=           0 FMFlag=      100000 FMFlg1=           0
         NFxFlg=           0 DoJE=T BraDBF=F KetDBF=T FulRan=T
         Omega=  0.000000  0.000000  1.000000  0.000000  0.000000 ICntrl=     500 IOpCl=  0
         NMat0=    1 NMatS0=    1 NMatT0=    0 NMatD0=    1 NMtDS0=    0 NMtDT0=    0
         I1Cent=           4 NGrid=           0.
 Petite list used in FoFCou.
 Initial guess orbital symmetries:
       Occupied  (A) (A) (A) (A) (A) (A) (A) (A) (A) (A) (A) (A)
                 (A) (A) (A) (A) (A) (A) (A) (A)
       Virtual   (A) (A) (A) (A) (A) (A) (A) (A) (A) (A) (A) (A)
                 (A) (A) (A) (A) (A) (A) (A) (A) (A) (A) (A) (A)
                 (A) (A) (A) (A) (A) (A) (A) (A) (A) (A) (A) (A)
                 (A) (A) (A) (A) (A) (A) (A) (A) (A)
 The electronic state of the initial guess is 1-A.
 Requested convergence on RMS density matrix=1.00D-08 within 128 cycles.
 Requested convergence on MAX density matrix=1.00D-06.
 Requested convergence on             energy=1.00D-06.
 No special actions if energy rises.
 Keep R1 ints in memory in canonical form, NReq=3134234.
 SCF Done:  E(RHF) =  -197.004427363     A.U. after   15 cycles
             Convg  =    0.3497D-08             -V/T =  2.0700

 **********************************************************************

            Population analysis using the SCF density.

 **********************************************************************

 Orbital symmetries:
       Occupied  (A) (A) (A) (A) (A) (A) (A) (A) (A) (A) (A) (A)
                 (A) (A) (A) (A) (A) (A) (A) (A)
       Virtual   (A) (A) (A) (A) (A) (A) (A) (A) (A) (A) (A) (A)
                 (A) (A) (A) (A) (A) (A) (A) (A) (A) (A) (A) (A)
                 (A) (A) (A) (A) (A) (A) (A) (A) (A) (A) (A) (A)
                 (A) (A) (A) (A) (A) (A) (A) (A) (A)
 The electronic state is 1-A.
 Alpha  occ. eigenvalues --  -26.31404 -11.36988 -11.31348  -1.62758  -1.11740
 Alpha  occ. eigenvalues --   -1.01112  -0.82500  -0.72719  -0.69816  -0.69369
 Alpha  occ. eigenvalues --   -0.64893  -0.60858  -0.55527  -0.47928  -0.46618
 Alpha  occ. eigenvalues --   -0.44030  -0.40951  -0.39770  -0.38037  -0.28039
 Alpha virt. eigenvalues --   -0.03022   0.07842   0.09042   0.09584   0.10518
 Alpha virt. eigenvalues --    0.11109   0.13429   0.14408   0.16951   0.20199
 Alpha virt. eigenvalues --    0.24356   0.27671   0.29450   0.41974   0.44317
 Alpha virt. eigenvalues --    0.46577   0.48862   0.49531   0.50738   0.52617
 Alpha virt. eigenvalues --    0.55974   0.57839   0.61075   0.62684   0.63447
 Alpha virt. eigenvalues --    0.64059   0.65811   0.78519   0.88771   1.14005
 Alpha virt. eigenvalues --    1.14148   1.14983   1.23925   1.25403   1.29930
 Alpha virt. eigenvalues --    1.32252   1.44541   1.48756   2.24478   6.78262
 Alpha virt. eigenvalues --   12.20598  13.58780  23.67900  23.99987  55.14462
          Condensed to atoms (all electrons):
              1          2          3          4          5          6
     1  C    4.960295   0.364604   0.002641   0.000000  -0.000002  -0.051294
     2  C    0.364604   6.072652  -0.027173   0.000076   0.000038   0.166802
     3  H    0.002641  -0.027173   0.838806   0.000026   0.000008   0.358129
     4  H    0.000000   0.000076   0.000026   0.870759  -0.012676  -0.007731
     5  H   -0.000002   0.000038   0.000008  -0.012676   0.848976  -0.009403
     6  Sn  -0.051294   0.166802   0.358129  -0.007731  -0.009403   2.720049
     7  Sn  -0.000500  -0.022025  -0.010758   0.331512   0.339201   0.246504
     8  F    0.191777  -0.050167  -0.000608   0.000000   0.000000   0.002443
     9  H    0.397641  -0.053316  -0.000006   0.000000   0.000000   0.001326
    10  Br  -0.086164   0.180739   0.001178   0.000050   0.002323  -0.043065
              7          8          9         10
     1  C   -0.000500   0.191777   0.397641  -0.086164
     2  C   -0.022025  -0.050167  -0.053316   0.180739
     3  H   -0.010758  -0.000608  -0.000006   0.001178
     4  H    0.331512   0.000000   0.000000   0.000050
     5  H    0.339201   0.000000   0.000000   0.002323
     6  Sn   0.246504   0.002443   0.001326  -0.043065
     7  Sn   2.745461   0.000050  -0.000014  -0.006224
     8  F    0.000050   9.244102  -0.042383   0.002191
     9  H   -0.000014  -0.042383   0.458895  -0.001818
    10  Br  -0.006224   0.002191  -0.001818   6.912140
 Mulliken atomic charges:
              1
     1  C    0.221002
     2  C   -0.632231
     3  H   -0.162244
     4  H   -0.182016
     5  H   -0.168465
     6  Sn   0.616240
     7  Sn   0.376794
     8  F   -0.347406
     9  H    0.239676
    10  Br   0.038650
 Sum of Mulliken atomic charges =   0.00000
 Mulliken charges with hydrogens summed into heavy atoms:
              1
     1  C    0.460679
     2  C   -0.632231
     6  Sn   0.453996
     7  Sn   0.026313
     8  F   -0.347406
    10  Br   0.038650
 Sum of Mulliken charges with hydrogens summed into heavy atoms =   0.00000
 Electronic spatial extent (au):  <R**2>=           1303.6172
 Charge=              0.0000 electrons
 Dipole moment (field-independent basis, Debye):
    X=             -0.6866    Y=              0.1838    Z=              0.1826  Tot=              0.7338
 Quadrupole moment (field-independent basis, Debye-Ang):
   XX=            -63.6659   YY=            -72.8360   ZZ=            -69.0301
   XY=              1.5437   XZ=             -3.2180   YZ=              4.2467
 Traceless Quadrupole moment (field-independent basis, Debye-Ang):
   XX=              4.8448   YY=             -4.3253   ZZ=             -0.5195
   XY=              1.5437   XZ=             -3.2180   YZ=              4.2467
 Octapole moment (field-independent basis, Debye-Ang**2):
  XXX=            -62.4681  YYY=             14.2721  ZZZ=             -8.3601  XYY=            -47.4366
  XXY=             18.7487  XXZ=             13.0247  XZZ=            -28.1343  YZZ=              0.6030
  YYZ=             -9.9517  XYZ=              2.1755
 Hexadecapole moment (field-independent basis, Debye-Ang**3):
 XXXX=          -1675.6752 YYYY=           -777.5242 ZZZZ=           -176.7356 XXXY=             39.1714
 XXXZ=            -58.0198 YYYX=             75.7131 YYYZ=             46.3283 ZZZX=            -42.4579
 ZZZY=             24.7952 XXYY=           -479.9032 XXZZ=           -320.8650 YYZZ=           -159.8120
 XXYZ=             33.1225 YYXZ=            -37.1177 ZZXY=              6.3594
 N-N= 1.335865360797D+02 E-N=-7.245659876985D+02  KE= 1.841121693066D+02
   1 Symmetry operations used in ECPInt.
 ECPInt:  NShTT=     780 NPrTT=    3579 LenC2=     766 LenP2D=    2862.
 LDataN:  DoStor=T MaxTD1= 6 Len=  172
 Calling FoFJK, ICntrl=      2127 FMM=F ISym2X=0 I1Cent= 0 IOpClX= 0 NMat=1 NMatS=1 NMatT=0.
 ***** Axes restored to original set *****
 -------------------------------------------------------------------
 Center     Atomic                   Forces (Hartrees/Bohr)
 Number     Number              X              Y              Z
 -------------------------------------------------------------------
      1        6           0.000802406   -0.000122516    0.000117029
      2        6           0.007949259   -0.000477827   -0.000945760
      3        1          -0.000493169    0.000682348   -0.000344045
      4        1          -0.001145423   -0.000380921    0.000050949
      5        1           0.000819469   -0.000832343    0.000325976
      6       50          -0.005736815   -0.003231544    0.001002325
      7       50           0.000314552    0.001601784   -0.000012734
      8        9           0.000025503   -0.000273892   -0.000041569
      9        1          -0.000035220   -0.000252291    0.000029661
     10       35          -0.002500562    0.003287202   -0.000181833
 -------------------------------------------------------------------
 Cartesian Forces:  Max     0.007949259 RMS     0.002105561

 GradGradGradGradGradGradGradGradGradGradGradGradGradGradGradGradGradGrad
 Berny optimization.
 Internal  Forces:  Max     0.006683306 RMS     0.001461445
 Search for a local minimum.
 Step number   1 out of a maximum of   43
 All quantities printed in internal units (Hartrees-Bohrs-Radians)
 Mixed Optimization -- RFO/linear search
 Second derivative matrix not updated -- first step.
     Eigenvalues ---    0.00230   0.00230   0.01641   0.03081   0.03081
     Eigenvalues ---    0.03467   0.04868   0.06987   0.11802   0.12082
     Eigenvalues ---    0.12136   0.12260   0.12318   0.14784   0.16000
     Eigenvalues ---    0.16000   0.16000   0.22000   0.23525   0.24983
     Eigenvalues ---    0.25000   0.37218   0.48504   0.607031000.00000
     Eigenvalues --- 1000.000001000.000001000.000001000.000001000.00000
     Eigenvalues --- 1000.000001000.000001000.00000
 RFO step:  Lambda=-5.43901722D-04 EMin= 2.30000000D-03
 Linear search not attempted -- first point.
 Iteration  1 RMS(Cart)=  0.01793347 RMS(Int)=  0.00003791
 Iteration  2 RMS(Cart)=  0.00004498 RMS(Int)=  0.00000854
 Iteration  3 RMS(Cart)=  0.00000000 RMS(Int)=  0.00000854
 Variable       Old X    -DE/DX   Delta X   Delta X   Delta X     New X
                                 (Linear)    (Quad)   (Total)
    R1        2.50388  -0.00039   0.00000  -0.00065  -0.00065   2.50323
    R2        2.61405  -0.00022   0.00000  -0.00045  -0.00045   2.61361
    R3        2.02218  -0.00013   0.00000  -0.00034  -0.00034   2.02184
    R4        4.08504   0.00668   0.00000   0.05507   0.05507   4.14011
    R5        3.74456  -0.00407   0.00000  -0.02744  -0.02744   3.71712
    R6        3.24802   0.00090   0.00000   0.00730   0.00730   3.25532
    R7        3.26008   0.00119   0.00000   0.00973   0.00973   3.26981
    R8        3.25186   0.00119   0.00000   0.00965   0.00965   3.26152
    R9        5.28871  -0.00048   0.00000  -0.00687  -0.00687   5.28184
    A1        2.09009  -0.00013   0.00000  -0.00057  -0.00057   2.08952
    A2        2.25137  -0.00016   0.00000  -0.00111  -0.00111   2.25025
    A3        1.94169   0.00029   0.00000   0.00170   0.00170   1.94338
    A4        2.22144   0.00070   0.00000   0.00273   0.00273   2.22417
    A5        2.01469  -0.00170   0.00000  -0.00683  -0.00683   2.00785
    A6        2.04587   0.00099   0.00000   0.00392   0.00392   2.04979
    A7        1.76552  -0.00006   0.00000   0.00139   0.00138   1.76691
    A8        1.95888   0.00024   0.00000   0.00167   0.00166   1.96054
    A9        1.99322   0.00009   0.00000   0.00237   0.00236   1.99559
   A10        1.77416   0.00013   0.00000   0.00496   0.00493   1.77909
   A11        1.92539   0.00035   0.00000   0.00440   0.00439   1.92978
   A12        2.00124   0.00026   0.00000   0.00365   0.00364   2.00487
    D1       -0.02790  -0.00009   0.00000  -0.00442  -0.00441  -0.03232
    D2       -3.11519  -0.00006   0.00000  -0.00048  -0.00048  -3.11568
    D3        3.10319  -0.00001   0.00000  -0.00194  -0.00193   3.10126
    D4        0.01590   0.00002   0.00000   0.00200   0.00200   0.01790
    D5        0.50524  -0.00005   0.00000  -0.00194  -0.00193   0.50331
    D6        2.63708   0.00014   0.00000   0.00253   0.00254   2.63962
    D7       -2.69150  -0.00015   0.00000  -0.00623  -0.00623  -2.69774
    D8       -0.55966   0.00004   0.00000  -0.00176  -0.00176  -0.56142
    D9        3.07191   0.00020   0.00000   0.00005   0.00006   3.07197
   D10        1.08197  -0.00036   0.00000  -0.01136  -0.01137   1.07059
   D11       -1.21479   0.00035   0.00000   0.00450   0.00451  -1.21028
   D12        3.07845  -0.00022   0.00000  -0.00691  -0.00692   3.07153
         Item               Value     Threshold  Converged?
 Maximum Force            0.006683     0.000450     NO 
 RMS     Force            0.001461     0.000300     NO 
 Maximum Displacement     0.045924     0.001800     NO 
 RMS     Displacement     0.017926     0.001200     NO 
 Predicted change in Energy=-2.732234D-04
 GradGradGradGradGradGradGradGradGradGradGradGradGradGradGradGradGradGrad

                          Input orientation:                          
 ---------------------------------------------------------------------
 Center     Atomic      Atomic             Coordinates (Angstroms)
 Number     Number       Type             X           Y           Z
 ---------------------------------------------------------------------
      1          6           0        2.297818    2.957635   -0.093061
      2          6           0        1.906286    1.704944    0.086316
      3          1           0       -1.056594    2.180605   -0.396593
      4          1           0       -2.100701   -2.183455   -0.123555
      5          1           0        0.485036   -2.814616    0.227888
      6         50           0       -0.133677    0.983436    0.429546
      7         50           0       -0.512856   -1.619181   -0.516389
      8          9           0        1.359309    3.973365   -0.111781
      9          1           0        3.287937    3.339648   -0.228870
     10         35           0        3.357421    0.377912    0.134771
 ---------------------------------------------------------------------
                    Distance matrix (angstroms):
                    1          2          3          4          5
     1  C    0.000000
     2  C    1.324654   0.000000
     3  H    3.456586   3.039427   0.000000
     4  H    6.765996   5.587454   4.495523   0.000000
     5  H    6.058718   4.739875   5.264868   2.684755   0.000000
     6  Sn   3.175334   2.190851   1.722642   3.768860   3.853397
     7  Sn   5.387609   4.155154   3.840361   1.730311   1.725920
     8  F    1.383061   2.341828   3.021869   7.062453   6.852474
     9  H    1.069913   2.163460   4.499607   7.717070   6.777893
    10  Br   2.798149   1.967017   4.797456   6.034768   4.295521
                    6          7          8          9         10
     6  Sn   0.000000
     7  Sn   2.795029   0.000000
     8  F    3.385515   5.911453   0.000000
     9  H    4.206267   6.254492   2.033448   0.000000
    10  Br   3.555463   4.403570   4.120743   2.984785   0.000000
 Stoichiometry    C2H4BrFSn2
 Framework group  C1[X(C2H4BrFSn2)]
 Deg. of freedom    24
 Full point group                 C1      NOp   1
 Largest Abelian subgroup         C1      NOp   1
 Largest concise Abelian subgroup C1      NOp   1
                         Standard orientation:                         
 ---------------------------------------------------------------------
 Center     Atomic      Atomic             Coordinates (Angstroms)
 Number     Number       Type             X           Y           Z
 ---------------------------------------------------------------------
      1          6           0        2.962202   -0.692965    0.474698
      2          6           0        1.810862   -0.145053    0.115651
      3          1           0        0.070986   -2.579262    0.650043
      4          1           0       -3.758518   -0.403896   -0.251297
      5          1           0       -2.403230    1.873779   -0.679435
      6         50           0       -0.070077   -1.173678   -0.335824
      7         50           0       -2.306015    0.406951    0.224870
      8          9           0        3.048557   -2.063941    0.635398
      9          1           0        3.901359   -0.218249    0.667936
     10         35           0        1.854816    1.807644   -0.117150
 ---------------------------------------------------------------------
 Rotational constants (GHZ):      0.8880520      0.3927425      0.2820214
 Standard basis: SDD (6D, 10F)
 There are    65 symmetry adapted basis functions of A   symmetry.
 Integral buffers will be    131072 words long.
 Raffenetti 1 integral format.
 Two-electron integral symmetry is turned on.
    65 basis functions,   139 primitive gaussians,    65 cartesian basis functions
    20 alpha electrons       20 beta electrons
       nuclear repulsion energy       133.4670269073 Hartrees.
 NAtoms=   10 NActive=   10 NUniq=   10 SFac= 7.50D-01 NAtFMM=   80 NAOKFM=F Big=F
 One-electron integrals computed using PRISM.
   1 Symmetry operations used in ECPInt.
 ECPInt:  NShTT=     780 NPrTT=    3579 LenC2=     766 LenP2D=    2858.
 LDataN:  DoStor=T MaxTD1= 5 Len=  102
 NBasis=    65 RedAO= T  NBF=    65
 NBsUse=    65 1.00D-06 NBFU=    65
 Initial guess read from the read-write file.
 B after Tr=     0.000000    0.000000    0.000000
         Rot=    1.000000    0.000000    0.000000    0.000000 Ang=   0.00 deg.
 Initial guess orbital symmetries:
       Occupied  (A) (A) (A) (A) (A) (A) (A) (A) (A) (A) (A) (A)
                 (A) (A) (A) (A) (A) (A) (A) (A)
       Virtual   (A) (A) (A) (A) (A) (A) (A) (A) (A) (A) (A) (A)
                 (A) (A) (A) (A) (A) (A) (A) (A) (A) (A) (A) (A)
                 (A) (A) (A) (A) (A) (A) (A) (A) (A) (A) (A) (A)
                 (A) (A) (A) (A) (A) (A) (A) (A) (A)
 Harris functional with IExCor=  205 diagonalized for initial guess.
 ExpMin= 3.61D-02 ExpMax= 9.99D+03 ExpMxC= 1.51D+03 IAcc=3 IRadAn=         0 AccDes= 0.00D+00
 HarFok:  IExCor=  205 AccDes= 0.00D+00 IRadAn=         0 IDoV= 1
 ScaDFX=  1.000000  1.000000  1.000000  1.000000
 Defaulting to unpruned grid for atomic number  50.
 Defaulting to unpruned grid for atomic number  50.
 Defaulting to unpruned grid for atomic number  50.
 Defaulting to unpruned grid for atomic number  50.
 Defaulting to unpruned grid for atomic number  50.
 Defaulting to unpruned grid for atomic number  50.
 Defaulting to unpruned grid for atomic number  50.
 Defaulting to unpruned grid for atomic number  50.
 Defaulting to unpruned grid for atomic number  50.
 Defaulting to unpruned grid for atomic number  50.
 Defaulting to unpruned grid for atomic number  50.
 Defaulting to unpruned grid for atomic number  50.
 Defaulting to unpruned grid for atomic number  50.
 Defaulting to unpruned grid for atomic number  50.
 Defaulting to unpruned grid for atomic number  50.
 Defaulting to unpruned grid for atomic number  50.
 Defaulting to unpruned grid for atomic number  50.
 Defaulting to unpruned grid for atomic number  50.
 Defaulting to unpruned grid for atomic number  50.
 Defaulting to unpruned grid for atomic number  50.
 FoFCou: FMM=F IPFlag=           0 FMFlag=      100000 FMFlg1=           0
         NFxFlg=           0 DoJE=T BraDBF=F KetDBF=T FulRan=T
         Omega=  0.000000  0.000000  1.000000  0.000000  0.000000 ICntrl=     500 IOpCl=  0
         NMat0=    1 NMatS0=    1 NMatT0=    0 NMatD0=    1 NMtDS0=    0 NMtDT0=    0
         I1Cent=           4 NGrid=           0.
 Petite list used in FoFCou.
 Requested convergence on RMS density matrix=1.00D-08 within 128 cycles.
 Requested convergence on MAX density matrix=1.00D-06.
 Requested convergence on             energy=1.00D-06.
 No special actions if energy rises.
 Keep R1 ints in memory in canonical form, NReq=3134234.
 SCF Done:  E(RHF) =  -197.004631465     A.U. after   12 cycles
             Convg  =    0.4234D-08             -V/T =  2.0701
   1 Symmetry operations used in ECPInt.
 ECPInt:  NShTT=     780 NPrTT=    3579 LenC2=     766 LenP2D=    2858.
 LDataN:  DoStor=T MaxTD1= 6 Len=  172
 Calling FoFJK, ICntrl=      2127 FMM=F ISym2X=0 I1Cent= 0 IOpClX= 0 NMat=1 NMatS=1 NMatT=0.
 ***** Axes restored to original set *****
 -------------------------------------------------------------------
 Center     Atomic                   Forces (Hartrees/Bohr)
 Number     Number              X              Y              Z
 -------------------------------------------------------------------
      1        6          -0.001178718    0.000297913    0.000011283
      2        6          -0.000256102   -0.000503845    0.000011866
      3        1           0.000293642   -0.000098871   -0.000029449
      4        1           0.000310044    0.000101458   -0.000017218
      5        1          -0.000216074    0.000209992   -0.000143453
      6       50           0.000567994    0.000914862    0.000093332
      7       50           0.000117581   -0.000233667    0.000070569
      8        9          -0.000180833    0.000376862   -0.000069050
      9        1           0.000050817   -0.000020600    0.000059989
     10       35           0.000491650   -0.001044103    0.000012131
 -------------------------------------------------------------------
 Cartesian Forces:  Max     0.001178718 RMS     0.000403014

 GradGradGradGradGradGradGradGradGradGradGradGradGradGradGradGradGradGrad
 Berny optimization.
 Using GEDIIS/GDIIS optimizer.
 Internal  Forces:  Max     0.001597121 RMS     0.000534574
 Search for a local minimum.
 Step number   2 out of a maximum of   43
 All quantities printed in internal units (Hartrees-Bohrs-Radians)
 Mixed Optimization -- En-DIIS/RFO-DIIS
 Update second derivatives using D2CorX and points    1    2
 DE= -2.04D-04 DEPred=-2.73D-04 R= 7.47D-01
 SS=  1.41D+00  RLast= 6.70D-02 DXNew= 5.0454D-01 2.0108D-01
 Trust test= 7.47D-01 RLast= 6.70D-02 DXMaxT set to 3.00D-01
 Use linear search instead of GDIIS.
     Eigenvalues ---    0.00230   0.00230   0.01637   0.03077   0.03081
     Eigenvalues ---    0.03457   0.04787   0.06967   0.11730   0.12123
     Eigenvalues ---    0.12236   0.12312   0.12852   0.15546   0.15995
     Eigenvalues ---    0.16000   0.16028   0.22025   0.23595   0.24900
     Eigenvalues ---    0.27866   0.37220   0.48569   0.607381000.00000
     Eigenvalues --- 1000.000001000.000001000.000001000.000001000.00000
     Eigenvalues --- 1000.000001000.000001000.00000
 RFO step:  Lambda=-1.69748789D-05 EMin= 2.29741071D-03
 Quartic linear search produced a step of -0.19636.
 Iteration  1 RMS(Cart)=  0.00793358 RMS(Int)=  0.00001924
 Iteration  2 RMS(Cart)=  0.00002329 RMS(Int)=  0.00000464
 Iteration  3 RMS(Cart)=  0.00000000 RMS(Int)=  0.00000464
 Variable       Old X    -DE/DX   Delta X   Delta X   Delta X     New X
                                 (Linear)    (Quad)   (Total)
    R1        2.50323   0.00023   0.00013   0.00016   0.00029   2.50352
    R2        2.61361   0.00040   0.00009   0.00056   0.00065   2.61426
    R3        2.02184   0.00003   0.00007  -0.00001   0.00006   2.02190
    R4        4.14011  -0.00130  -0.01081   0.00363  -0.00718   4.13293
    R5        3.71712   0.00107   0.00539  -0.00033   0.00505   3.72218
    R6        3.25532  -0.00021  -0.00143   0.00024  -0.00119   3.25413
    R7        3.26981  -0.00032  -0.00191   0.00004  -0.00187   3.26794
    R8        3.26152  -0.00033  -0.00190  -0.00003  -0.00192   3.25959
    R9        5.28184  -0.00007   0.00135  -0.00232  -0.00097   5.28087
    A1        2.08952   0.00026   0.00011   0.00081   0.00092   2.09044
    A2        2.25025  -0.00017   0.00022  -0.00093  -0.00071   2.24954
    A3        1.94338  -0.00009  -0.00033   0.00012  -0.00021   1.94318
    A4        2.22417  -0.00159  -0.00054  -0.00445  -0.00498   2.21919
    A5        2.00785   0.00160   0.00134   0.00365   0.00499   2.01285
    A6        2.04979   0.00000  -0.00077   0.00091   0.00014   2.04993
    A7        1.76691  -0.00007  -0.00027  -0.00344  -0.00373   1.76318
    A8        1.96054  -0.00077  -0.00033  -0.00336  -0.00369   1.95685
    A9        1.99559   0.00021  -0.00046  -0.00084  -0.00132   1.99426
   A10        1.77909  -0.00004  -0.00097   0.00037  -0.00059   1.77850
   A11        1.92978  -0.00009  -0.00086   0.00028  -0.00058   1.92920
   A12        2.00487   0.00006  -0.00071   0.00086   0.00015   2.00502
    D1       -0.03232  -0.00003   0.00087  -0.00052   0.00034  -0.03197
    D2       -3.11568  -0.00007   0.00010  -0.00315  -0.00305  -3.11873
    D3        3.10126  -0.00002   0.00038   0.00006   0.00044   3.10170
    D4        0.01790  -0.00007  -0.00039  -0.00257  -0.00296   0.01494
    D5        0.50331   0.00004   0.00038   0.00305   0.00343   0.50673
    D6        2.63962  -0.00013  -0.00050  -0.00173  -0.00222   2.63740
    D7       -2.69774   0.00014   0.00122   0.00581   0.00702  -2.69071
    D8       -0.56142  -0.00003   0.00035   0.00103   0.00138  -0.56004
    D9        3.07197   0.00017  -0.00001  -0.00509  -0.00511   3.06686
   D10        1.07059   0.00025   0.00223  -0.00629  -0.00405   1.06654
   D11       -1.21028  -0.00030  -0.00089  -0.01236  -0.01325  -1.22353
   D12        3.07153  -0.00023   0.00136  -0.01356  -0.01220   3.05934
         Item               Value     Threshold  Converged?
 Maximum Force            0.001597     0.000450     NO 
 RMS     Force            0.000535     0.000300     NO 
 Maximum Displacement     0.018647     0.001800     NO 
 RMS     Displacement     0.007941     0.001200     NO 
 Predicted change in Energy=-2.098813D-05
 GradGradGradGradGradGradGradGradGradGradGradGradGradGradGradGradGradGrad

                          Input orientation:                          
 ---------------------------------------------------------------------
 Center     Atomic      Atomic             Coordinates (Angstroms)
 Number     Number       Type             X           Y           Z
 ---------------------------------------------------------------------
      1          6           0        2.293353    2.954856   -0.092228
      2          6           0        1.904655    1.701392    0.089019
      3          1           0       -1.047211    2.184545   -0.402642
      4          1           0       -2.095712   -2.181024   -0.118188
      5          1           0        0.490058   -2.808459    0.222683
      6         50           0       -0.133780    0.987230    0.432467
      7         50           0       -0.511228   -1.614054   -0.516312
      8          9           0        1.353269    3.969576   -0.112015
      9          1           0        3.282855    3.338187   -0.229065
     10         35           0        3.353720    0.368044    0.134553
 ---------------------------------------------------------------------
                    Distance matrix (angstroms):
                    1          2          3          4          5
     1  C    0.000000
     2  C    1.324805   0.000000
     3  H    3.442253   3.031284   0.000000
     4  H    6.755874   5.578443   4.498717   0.000000
     5  H    6.047052   4.728394   5.261589   2.682550   0.000000
     6  Sn   3.168254   2.187053   1.722013   3.766992   3.852329
     7  Sn   5.377774   4.146697   3.837910   1.729320   1.724903
     8  F    1.383405   2.342884   3.005513   7.051623   6.840974
     9  H    1.069944   2.163264   4.484472   7.707332   6.766465
    10  Br   2.804889   1.969690   4.791290   6.021457   4.277675
                    6          7          8          9         10
     6  Sn   0.000000
     7  Sn   2.794517   0.000000
     8  F    3.376709   5.900570   0.000000
     9  H    4.199763   6.245179   2.033631   0.000000
    10  Br   3.554546   4.392057   4.127183   2.993157   0.000000
 Stoichiometry    C2H4BrFSn2
 Framework group  C1[X(C2H4BrFSn2)]
 Deg. of freedom    24
 Full point group                 C1      NOp   1
 Largest Abelian subgroup         C1      NOp   1
 Largest concise Abelian subgroup C1      NOp   1
                         Standard orientation:                         
 ---------------------------------------------------------------------
 Center     Atomic      Atomic             Coordinates (Angstroms)
 Number     Number       Type             X           Y           Z
 ---------------------------------------------------------------------
      1          6           0        2.957506   -0.692570    0.475813
      2          6           0        1.807743   -0.142693    0.114163
      3          1           0        0.080332   -2.573425    0.658477
      4          1           0       -3.752283   -0.402709   -0.256682
      5          1           0       -2.395891    1.873708   -0.674058
      6         50           0       -0.066364   -1.175889   -0.336864
      7         50           0       -2.301128    0.404938    0.225401
      8          9           0        3.042257   -2.063827    0.637923
      9          1           0        3.896869   -0.218770    0.670469
     10         35           0        1.844965    1.812994   -0.117321
 ---------------------------------------------------------------------
 Rotational constants (GHZ):      0.8848141      0.3947996      0.2828113
 Standard basis: SDD (6D, 10F)
 There are    65 symmetry adapted basis functions of A   symmetry.
 Integral buffers will be    131072 words long.
 Raffenetti 1 integral format.
 Two-electron integral symmetry is turned on.
    65 basis functions,   139 primitive gaussians,    65 cartesian basis functions
    20 alpha electrons       20 beta electrons
       nuclear repulsion energy       133.4969948701 Hartrees.
 NAtoms=   10 NActive=   10 NUniq=   10 SFac= 7.50D-01 NAtFMM=   80 NAOKFM=F Big=F
 One-electron integrals computed using PRISM.
   1 Symmetry operations used in ECPInt.
 ECPInt:  NShTT=     780 NPrTT=    3579 LenC2=     766 LenP2D=    2860.
 LDataN:  DoStor=T MaxTD1= 5 Len=  102
 NBasis=    65 RedAO= T  NBF=    65
 NBsUse=    65 1.00D-06 NBFU=    65
 Initial guess read from the read-write file.
 B after Tr=     0.000000    0.000000    0.000000
         Rot=    1.000000    0.000000    0.000000    0.000000 Ang=   0.00 deg.
 Initial guess orbital symmetries:
       Occupied  (A) (A) (A) (A) (A) (A) (A) (A) (A) (A) (A) (A)
                 (A) (A) (A) (A) (A) (A) (A) (A)
       Virtual   (A) (A) (A) (A) (A) (A) (A) (A) (A) (A) (A) (A)
                 (A) (A) (A) (A) (A) (A) (A) (A) (A) (A) (A) (A)
                 (A) (A) (A) (A) (A) (A) (A) (A) (A) (A) (A) (A)
                 (A) (A) (A) (A) (A) (A) (A) (A) (A)
 Requested convergence on RMS density matrix=1.00D-08 within 128 cycles.
 Requested convergence on MAX density matrix=1.00D-06.
 Requested convergence on             energy=1.00D-06.
 No special actions if energy rises.
 Keep R1 ints in memory in canonical form, NReq=3134234.
 SCF Done:  E(RHF) =  -197.004654147     A.U. after   11 cycles
             Convg  =    0.5247D-08             -V/T =  2.0701
   1 Symmetry operations used in ECPInt.
 ECPInt:  NShTT=     780 NPrTT=    3579 LenC2=     766 LenP2D=    2860.
 LDataN:  DoStor=T MaxTD1= 6 Len=  172
 Calling FoFJK, ICntrl=      2127 FMM=F ISym2X=0 I1Cent= 0 IOpClX= 0 NMat=1 NMatS=1 NMatT=0.
 ***** Axes restored to original set *****
 -------------------------------------------------------------------
 Center     Atomic                   Forces (Hartrees/Bohr)
 Number     Number              X              Y              Z
 -------------------------------------------------------------------
      1        6          -0.000303530   -0.000056024   -0.000022772
      2        6           0.000471184   -0.000456273   -0.000155937
      3        1           0.000009629   -0.000027155    0.000042019
      4        1           0.000051346   -0.000038225   -0.000090018
      5        1          -0.000049563   -0.000022370   -0.000036461
      6       50          -0.000140345    0.000448929    0.000030915
      7       50           0.000072425   -0.000049308    0.000122270
      8        9          -0.000003370    0.000009233    0.000075873
      9        1           0.000024310    0.000030577    0.000001132
     10       35          -0.000132086    0.000160617    0.000032979
 -------------------------------------------------------------------
 Cartesian Forces:  Max     0.000471184 RMS     0.000169894

 GradGradGradGradGradGradGradGradGradGradGradGradGradGradGradGradGradGrad
 Berny optimization.
 Using GEDIIS/GDIIS optimizer.
 Internal  Forces:  Max     0.000515714 RMS     0.000164338
 Search for a local minimum.
 Step number   3 out of a maximum of   43
 All quantities printed in internal units (Hartrees-Bohrs-Radians)
 Mixed Optimization -- En-DIIS/RFO-DIIS
 Swaping is turned off.
 Update second derivatives using D2CorX and points    1    2    3
 DE= -2.27D-05 DEPred=-2.10D-05 R= 1.08D+00
 SS=  1.41D+00  RLast= 2.49D-02 DXNew= 5.0454D-01 7.4786D-02
 Trust test= 1.08D+00 RLast= 2.49D-02 DXMaxT set to 3.00D-01
     Eigenvalues ---    0.00227   0.00256   0.01673   0.03050   0.03104
     Eigenvalues ---    0.03396   0.04839   0.07027   0.11554   0.12111
     Eigenvalues ---    0.12236   0.12312   0.12609   0.15571   0.15880
     Eigenvalues ---    0.16000   0.16686   0.19568   0.22115   0.24267
     Eigenvalues ---    0.27473   0.37219   0.48614   0.609411000.00000
     Eigenvalues --- 1000.000001000.000001000.000001000.000001000.00000
     Eigenvalues --- 1000.000001000.000001000.00000
 En-DIIS/RFO-DIIS IScMMF=        0 using points:     3    2
 RFO step:  Lambda=-2.52553677D-06.
 DIIS coeffs:      1.07254     -0.07254
 Iteration  1 RMS(Cart)=  0.01487670 RMS(Int)=  0.00011649
 Iteration  2 RMS(Cart)=  0.00012612 RMS(Int)=  0.00000213
 Iteration  3 RMS(Cart)=  0.00000001 RMS(Int)=  0.00000213
 Variable       Old X    -DE/DX   Delta X   Delta X   Delta X     New X
                                  (DIIS)     (GDIIS)  (Total)
    R1        2.50352  -0.00011   0.00002  -0.00014  -0.00012   2.50340
    R2        2.61426   0.00001   0.00005   0.00017   0.00022   2.61447
    R3        2.02190   0.00003   0.00000   0.00010   0.00011   2.02201
    R4        4.13293  -0.00004  -0.00052  -0.00065  -0.00117   4.13176
    R5        3.72218  -0.00021   0.00037  -0.00100  -0.00063   3.72154
    R6        3.25413  -0.00004  -0.00009  -0.00049  -0.00058   3.25355
    R7        3.26794  -0.00006  -0.00014  -0.00070  -0.00084   3.26710
    R8        3.25959  -0.00003  -0.00014  -0.00048  -0.00062   3.25898
    R9        5.28087   0.00009  -0.00007   0.00104   0.00097   5.28184
    A1        2.09044  -0.00003   0.00007   0.00008   0.00015   2.09059
    A2        2.24954   0.00003  -0.00005  -0.00002  -0.00007   2.24947
    A3        1.94318  -0.00001  -0.00002  -0.00008  -0.00010   1.94308
    A4        2.21919  -0.00052  -0.00036  -0.00350  -0.00386   2.21533
    A5        2.01285   0.00021   0.00036   0.00196   0.00232   2.01516
    A6        2.04993   0.00030   0.00001   0.00141   0.00142   2.05136
    A7        1.76318   0.00012  -0.00027  -0.00091  -0.00118   1.76199
    A8        1.95685  -0.00050  -0.00027  -0.00338  -0.00366   1.95319
    A9        1.99426   0.00013  -0.00010   0.00015   0.00005   1.99431
   A10        1.77850  -0.00009  -0.00004   0.00038   0.00033   1.77883
   A11        1.92920   0.00022  -0.00004   0.00206   0.00202   1.93122
   A12        2.00502   0.00014   0.00001   0.00161   0.00162   2.00664
    D1       -0.03197   0.00006   0.00002   0.00126   0.00128  -0.03069
    D2       -3.11873   0.00011  -0.00022   0.00404   0.00381  -3.11492
    D3        3.10170  -0.00003   0.00003  -0.00190  -0.00187   3.09983
    D4        0.01494   0.00002  -0.00021   0.00088   0.00066   0.01560
    D5        0.50673   0.00005   0.00025   0.01139   0.01164   0.51837
    D6        2.63740   0.00004  -0.00016   0.00939   0.00923   2.64663
    D7       -2.69071   0.00000   0.00051   0.00858   0.00908  -2.68163
    D8       -0.56004  -0.00002   0.00010   0.00657   0.00667  -0.55337
    D9        3.06686   0.00015  -0.00037   0.02210   0.02173   3.08860
   D10        1.06654   0.00003  -0.00029   0.01921   0.01892   1.08546
   D11       -1.22353   0.00006  -0.00096   0.01875   0.01779  -1.20573
   D12        3.05934  -0.00007  -0.00088   0.01586   0.01498   3.07431
         Item               Value     Threshold  Converged?
 Maximum Force            0.000516     0.000450     NO 
 RMS     Force            0.000164     0.000300     YES
 Maximum Displacement     0.048141     0.001800     NO 
 RMS     Displacement     0.014864     0.001200     NO 
 Predicted change in Energy=-5.498725D-06
 GradGradGradGradGradGradGradGradGradGradGradGradGradGradGradGradGradGrad

                          Input orientation:                          
 ---------------------------------------------------------------------
 Center     Atomic      Atomic             Coordinates (Angstroms)
 Number     Number       Type             X           Y           Z
 ---------------------------------------------------------------------
      1          6           0        2.291684    2.955694   -0.091986
      2          6           0        1.906414    1.700411    0.083445
      3          1           0       -1.044059    2.182684   -0.404019
      4          1           0       -2.096020   -2.176509   -0.139893
      5          1           0        0.480729   -2.812562    0.248158
      6         50           0       -0.130744    0.988426    0.434954
      7         50           0       -0.502946   -1.615720   -0.509544
      8          9           0        1.349933    3.969204   -0.097397
      9          1           0        3.279824    3.341834   -0.231188
     10         35           0        3.355165    0.366829    0.115744
 ---------------------------------------------------------------------
                    Distance matrix (angstroms):
                    1          2          3          4          5
     1  C    0.000000
     2  C    1.324744   0.000000
     3  H    3.438327   3.029109   0.000000
     4  H    6.752315   5.576725   4.492098   0.000000
     5  H    6.055414   4.735676   5.263344   2.682309   0.000000
     6  Sn   3.164801   2.186434   1.721706   3.769559   3.854387
     7  Sn   5.374211   4.141663   3.838203   1.728875   1.724576
     8  F    1.383520   2.343032   3.002810   7.046005   6.845967
     9  H    1.070001   2.163220   4.479896   7.704554   6.778001
    10  Br   2.806486   1.969356   4.787552   6.020742   4.288175
                    6          7          8          9         10
     6  Sn   0.000000
     7  Sn   2.795029   0.000000
     8  F    3.370584   5.898677   0.000000
     9  H    4.196933   6.242129   2.033709   0.000000
    10  Br   3.555255   4.382523   4.128376   2.996113   0.000000
 Stoichiometry    C2H4BrFSn2
 Framework group  C1[X(C2H4BrFSn2)]
 Deg. of freedom    24
 Full point group                 C1      NOp   1
 Largest Abelian subgroup         C1      NOp   1
 Largest concise Abelian subgroup C1      NOp   1
                         Standard orientation:                         
 ---------------------------------------------------------------------
 Center     Atomic      Atomic             Coordinates (Angstroms)
 Number     Number       Type             X           Y           Z
 ---------------------------------------------------------------------
      1          6           0        2.957988   -0.687222    0.470605
      2          6           0        1.806229   -0.138040    0.114519
      3          1           0        0.087188   -2.568468    0.674355
      4          1           0       -3.753343   -0.417499   -0.221522
      5          1           0       -2.411240    1.854107   -0.704588
      6         50           0       -0.063351   -1.179895   -0.332359
      7         50           0       -2.298375    0.404160    0.222277
      8          9           0        3.046095   -2.059119    0.626362
      9          1           0        3.897599   -0.212604    0.662364
     10         35           0        1.836170    1.817567   -0.115843
 ---------------------------------------------------------------------
 Rotational constants (GHZ):      0.8833502      0.3961733      0.2830973
 Standard basis: SDD (6D, 10F)
 There are    65 symmetry adapted basis functions of A   symmetry.
 Integral buffers will be    131072 words long.
 Raffenetti 1 integral format.
 Two-electron integral symmetry is turned on.
    65 basis functions,   139 primitive gaussians,    65 cartesian basis functions
    20 alpha electrons       20 beta electrons
       nuclear repulsion energy       133.5185607822 Hartrees.
 NAtoms=   10 NActive=   10 NUniq=   10 SFac= 7.50D-01 NAtFMM=   80 NAOKFM=F Big=F
 One-electron integrals computed using PRISM.
   1 Symmetry operations used in ECPInt.
 ECPInt:  NShTT=     780 NPrTT=    3579 LenC2=     766 LenP2D=    2860.
 LDataN:  DoStor=T MaxTD1= 5 Len=  102
 NBasis=    65 RedAO= T  NBF=    65
 NBsUse=    65 1.00D-06 NBFU=    65
 Initial guess read from the read-write file.
 B after Tr=     0.000000    0.000000    0.000000
         Rot=    1.000000    0.000000    0.000000    0.000000 Ang=   0.00 deg.
 Initial guess orbital symmetries:
       Occupied  (A) (A) (A) (A) (A) (A) (A) (A) (A) (A) (A) (A)
                 (A) (A) (A) (A) (A) (A) (A) (A)
       Virtual   (A) (A) (A) (A) (A) (A) (A) (A) (A) (A) (A) (A)
                 (A) (A) (A) (A) (A) (A) (A) (A) (A) (A) (A) (A)
                 (A) (A) (A) (A) (A) (A) (A) (A) (A) (A) (A) (A)
                 (A) (A) (A) (A) (A) (A) (A) (A) (A)
 Harris functional with IExCor=  205 diagonalized for initial guess.
 ExpMin= 3.61D-02 ExpMax= 9.99D+03 ExpMxC= 1.51D+03 IAcc=3 IRadAn=         0 AccDes= 0.00D+00
 HarFok:  IExCor=  205 AccDes= 0.00D+00 IRadAn=         0 IDoV= 1
 ScaDFX=  1.000000  1.000000  1.000000  1.000000
 Defaulting to unpruned grid for atomic number  50.
 Defaulting to unpruned grid for atomic number  50.
 Defaulting to unpruned grid for atomic number  50.
 Defaulting to unpruned grid for atomic number  50.
 Defaulting to unpruned grid for atomic number  50.
 Defaulting to unpruned grid for atomic number  50.
 Defaulting to unpruned grid for atomic number  50.
 Defaulting to unpruned grid for atomic number  50.
 Defaulting to unpruned grid for atomic number  50.
 Defaulting to unpruned grid for atomic number  50.
 Defaulting to unpruned grid for atomic number  50.
 Defaulting to unpruned grid for atomic number  50.
 Defaulting to unpruned grid for atomic number  50.
 Defaulting to unpruned grid for atomic number  50.
 Defaulting to unpruned grid for atomic number  50.
 Defaulting to unpruned grid for atomic number  50.
 Defaulting to unpruned grid for atomic number  50.
 Defaulting to unpruned grid for atomic number  50.
 Defaulting to unpruned grid for atomic number  50.
 Defaulting to unpruned grid for atomic number  50.
 FoFCou: FMM=F IPFlag=           0 FMFlag=      100000 FMFlg1=           0
         NFxFlg=           0 DoJE=T BraDBF=F KetDBF=T FulRan=T
         Omega=  0.000000  0.000000  1.000000  0.000000  0.000000 ICntrl=     500 IOpCl=  0
         NMat0=    1 NMatS0=    1 NMatT0=    0 NMatD0=    1 NMtDS0=    0 NMtDT0=    0
         I1Cent=           4 NGrid=           0.
 Petite list used in FoFCou.
 Requested convergence on RMS density matrix=1.00D-08 within 128 cycles.
 Requested convergence on MAX density matrix=1.00D-06.
 Requested convergence on             energy=1.00D-06.
 No special actions if energy rises.
 Keep R1 ints in memory in canonical form, NReq=3134234.
 SCF Done:  E(RHF) =  -197.004655332     A.U. after   11 cycles
             Convg  =    0.8277D-08             -V/T =  2.0701
   1 Symmetry operations used in ECPInt.
 ECPInt:  NShTT=     780 NPrTT=    3579 LenC2=     766 LenP2D=    2860.
 LDataN:  DoStor=T MaxTD1= 6 Len=  172
 Calling FoFJK, ICntrl=      2127 FMM=F ISym2X=0 I1Cent= 0 IOpClX= 0 NMat=1 NMatS=1 NMatT=0.
 ***** Axes restored to original set *****
 -------------------------------------------------------------------
 Center     Atomic                   Forces (Hartrees/Bohr)
 Number     Number              X              Y              Z
 -------------------------------------------------------------------
      1        6           0.000180634   -0.000093843    0.000173274
      2        6           0.000294088   -0.000325132    0.000055186
      3        1          -0.000060075   -0.000001422   -0.000097604
      4        1          -0.000052337   -0.000104542    0.000088622
      5        1           0.000021241   -0.000052475   -0.000091336
      6       50          -0.000252335    0.000159611    0.000013933
      7       50           0.000047829    0.000140512    0.000016136
      8        9          -0.000037873   -0.000077180   -0.000033362
      9        1          -0.000025536    0.000024211   -0.000082279
     10       35          -0.000115638    0.000330260   -0.000042570
 -------------------------------------------------------------------
 Cartesian Forces:  Max     0.000330260 RMS     0.000137273

 GradGradGradGradGradGradGradGradGradGradGradGradGradGradGradGradGradGrad
 Berny optimization.
 Using GEDIIS/GDIIS optimizer.
 Internal  Forces:  Max     0.000381414 RMS     0.000141136
 Search for a local minimum.
 Step number   4 out of a maximum of   43
 All quantities printed in internal units (Hartrees-Bohrs-Radians)
 Mixed Optimization -- En-DIIS/RFO-DIIS
 Swaping is turned off.
 Update second derivatives using D2CorX and points    1    2    3    4
 DE= -1.19D-06 DEPred=-5.50D-06 R= 2.16D-01
 Trust test= 2.16D-01 RLast= 4.23D-02 DXMaxT set to 3.00D-01
     Eigenvalues ---    0.00202   0.00600   0.01701   0.02818   0.03155
     Eigenvalues ---    0.03312   0.04675   0.07082   0.10149   0.11747
     Eigenvalues ---    0.12104   0.12267   0.12338   0.13003   0.15437
     Eigenvalues ---    0.16047   0.16127   0.17956   0.22258   0.24254
     Eigenvalues ---    0.29344   0.37221   0.48659   0.610171000.00000
     Eigenvalues --- 1000.000001000.000001000.000001000.000001000.00000
     Eigenvalues --- 1000.000001000.000001000.00000
 En-DIIS/RFO-DIIS IScMMF=        0 using points:     4    3    2
 RFO step:  Lambda=-2.07455539D-06.
 DIIS coeffs:      0.53521      0.63422     -0.16943
 Iteration  1 RMS(Cart)=  0.01055372 RMS(Int)=  0.00005089
 Iteration  2 RMS(Cart)=  0.00005407 RMS(Int)=  0.00000170
 Iteration  3 RMS(Cart)=  0.00000000 RMS(Int)=  0.00000170
 Variable       Old X    -DE/DX   Delta X   Delta X   Delta X     New X
                                  (DIIS)     (GDIIS)  (Total)
    R1        2.50340  -0.00011   0.00010  -0.00027  -0.00016   2.50324
    R2        2.61447  -0.00003   0.00001   0.00012   0.00013   2.61461
    R3        2.02201   0.00000  -0.00004   0.00010   0.00006   2.02207
    R4        4.13176   0.00022  -0.00067   0.00169   0.00102   4.13278
    R5        3.72154  -0.00031   0.00115  -0.00293  -0.00178   3.71977
    R6        3.25355   0.00008   0.00007  -0.00001   0.00006   3.25361
    R7        3.26710   0.00010   0.00007  -0.00006   0.00001   3.26711
    R8        3.25898   0.00001  -0.00004  -0.00021  -0.00025   3.25873
    R9        5.28184   0.00001  -0.00061   0.00106   0.00044   5.28228
    A1        2.09059  -0.00015   0.00009  -0.00030  -0.00022   2.09038
    A2        2.24947   0.00012  -0.00009   0.00027   0.00019   2.24966
    A3        1.94308   0.00004   0.00001   0.00002   0.00003   1.94311
    A4        2.21533  -0.00013   0.00095  -0.00386  -0.00291   2.21241
    A5        2.01516  -0.00025  -0.00023   0.00133   0.00110   2.01626
    A6        2.05136   0.00038  -0.00064   0.00240   0.00177   2.05312
    A7        1.76199   0.00019  -0.00008  -0.00005  -0.00013   1.76186
    A8        1.95319  -0.00014   0.00107  -0.00378  -0.00271   1.95049
    A9        1.99431  -0.00010  -0.00025  -0.00017  -0.00042   1.99389
   A10        1.77883  -0.00011  -0.00025   0.00033   0.00008   1.77891
   A11        1.93122   0.00008  -0.00104   0.00267   0.00164   1.93286
   A12        2.00664   0.00021  -0.00073   0.00257   0.00184   2.00848
    D1       -0.03069  -0.00004  -0.00054   0.00070   0.00016  -0.03053
    D2       -3.11492  -0.00006  -0.00229   0.00332   0.00103  -3.11389
    D3        3.09983   0.00008   0.00094  -0.00077   0.00017   3.10000
    D4        0.01560   0.00005  -0.00081   0.00185   0.00104   0.01664
    D5        0.51837   0.00003  -0.00483   0.01290   0.00807   0.52644
    D6        2.64663  -0.00004  -0.00466   0.01086   0.00620   2.65283
    D7       -2.68163   0.00004  -0.00303   0.01020   0.00717  -2.67446
    D8       -0.55337  -0.00003  -0.00287   0.00816   0.00530  -0.54808
    D9        3.08860  -0.00015  -0.01097  -0.00386  -0.01483   3.07377
   D10        1.08546  -0.00019  -0.00948  -0.00774  -0.01722   1.06824
   D11       -1.20573  -0.00006  -0.01052  -0.00657  -0.01708  -1.22282
   D12        3.07431  -0.00010  -0.00903  -0.01045  -0.01948   3.05484
         Item               Value     Threshold  Converged?
 Maximum Force            0.000381     0.000450     YES
 RMS     Force            0.000141     0.000300     YES
 Maximum Displacement     0.031037     0.001800     NO 
 RMS     Displacement     0.010553     0.001200     NO 
 Predicted change in Energy=-6.284276D-06
 GradGradGradGradGradGradGradGradGradGradGradGradGradGradGradGradGradGrad

                          Input orientation:                          
 ---------------------------------------------------------------------
 Center     Atomic      Atomic             Coordinates (Angstroms)
 Number     Number       Type             X           Y           Z
 ---------------------------------------------------------------------
      1          6           0        2.291864    2.953529   -0.088946
      2          6           0        1.904804    1.698398    0.082958
      3          1           0       -1.042735    2.186551   -0.418109
      4          1           0       -2.093138   -2.182312   -0.123469
      5          1           0        0.490562   -2.806311    0.236862
      6         50           0       -0.136221    0.994057    0.430754
      7         50           0       -0.506676   -1.612724   -0.507836
      8          9           0        1.351219    3.968170   -0.092336
      9          1           0        3.280573    3.338887   -0.226492
     10         35           0        3.349728    0.362047    0.114887
 ---------------------------------------------------------------------
                    Distance matrix (angstroms):
                    1          2          3          4          5
     1  C    0.000000
     2  C    1.324658   0.000000
     3  H    3.437462   3.029413   0.000000
     4  H    6.753243   5.575488   4.503013   0.000000
     5  H    6.043723   4.723999   5.263901   2.682298   0.000000
     6  Sn   3.163102   2.186971   1.721736   3.771738   3.856585
     7  Sn   5.371961   4.138575   3.837955   1.728881   1.724445
     8  F    1.383590   2.342872   3.001884   7.049326   6.836863
     9  H    1.070031   2.163262   4.478346   7.705259   6.764785
    10  Br   2.806493   1.968416   4.786087   6.012933   4.269449
                    6          7          8          9         10
     6  Sn   0.000000
     7  Sn   2.795264   0.000000
     8  F    3.366222   5.896677   0.000000
     9  H    4.195793   6.240262   2.033815   0.000000
    10  Br   3.556832   4.377140   4.128088   2.997149   0.000000
 Stoichiometry    C2H4BrFSn2
 Framework group  C1[X(C2H4BrFSn2)]
 Deg. of freedom    24
 Full point group                 C1      NOp   1
 Largest Abelian subgroup         C1      NOp   1
 Largest concise Abelian subgroup C1      NOp   1
                         Standard orientation:                         
 ---------------------------------------------------------------------
 Center     Atomic      Atomic             Coordinates (Angstroms)
 Number     Number       Type             X           Y           Z
 ---------------------------------------------------------------------
      1          6           0        2.958294   -0.683601    0.466188
      2          6           0        1.805289   -0.134803    0.113881
      3          1           0        0.090061   -2.565305    0.686591
      4          1           0       -3.752272   -0.407680   -0.239831
      5          1           0       -2.398681    1.863376   -0.692398
      6         50           0       -0.062210   -1.183261   -0.328863
      7         50           0       -2.296701    0.403850    0.220342
      8          9           0        3.047623   -2.055784    0.619341
      9          1           0        3.898089   -0.208697    0.656499
     10         35           0        1.831379    1.820038   -0.115409
 ---------------------------------------------------------------------
 Rotational constants (GHZ):      0.8822739      0.3970491      0.2832441
 Standard basis: SDD (6D, 10F)
 There are    65 symmetry adapted basis functions of A   symmetry.
 Integral buffers will be    131072 words long.
 Raffenetti 1 integral format.
 Two-electron integral symmetry is turned on.
    65 basis functions,   139 primitive gaussians,    65 cartesian basis functions
    20 alpha electrons       20 beta electrons
       nuclear repulsion energy       133.5474045366 Hartrees.
 NAtoms=   10 NActive=   10 NUniq=   10 SFac= 7.50D-01 NAtFMM=   80 NAOKFM=F Big=F
 One-electron integrals computed using PRISM.
   1 Symmetry operations used in ECPInt.
 ECPInt:  NShTT=     780 NPrTT=    3579 LenC2=     766 LenP2D=    2862.
 LDataN:  DoStor=T MaxTD1= 5 Len=  102
 NBasis=    65 RedAO= T  NBF=    65
 NBsUse=    65 1.00D-06 NBFU=    65
 Initial guess read from the read-write file.
 B after Tr=     0.000000    0.000000    0.000000
         Rot=    1.000000    0.000000    0.000000    0.000000 Ang=   0.00 deg.
 Initial guess orbital symmetries:
       Occupied  (A) (A) (A) (A) (A) (A) (A) (A) (A) (A) (A) (A)
                 (A) (A) (A) (A) (A) (A) (A) (A)
       Virtual   (A) (A) (A) (A) (A) (A) (A) (A) (A) (A) (A) (A)
                 (A) (A) (A) (A) (A) (A) (A) (A) (A) (A) (A) (A)
                 (A) (A) (A) (A) (A) (A) (A) (A) (A) (A) (A) (A)
                 (A) (A) (A) (A) (A) (A) (A) (A) (A)
 Harris functional with IExCor=  205 diagonalized for initial guess.
 ExpMin= 3.61D-02 ExpMax= 9.99D+03 ExpMxC= 1.51D+03 IAcc=3 IRadAn=         0 AccDes= 0.00D+00
 HarFok:  IExCor=  205 AccDes= 0.00D+00 IRadAn=         0 IDoV= 1
 ScaDFX=  1.000000  1.000000  1.000000  1.000000
 Defaulting to unpruned grid for atomic number  50.
 Defaulting to unpruned grid for atomic number  50.
 Defaulting to unpruned grid for atomic number  50.
 Defaulting to unpruned grid for atomic number  50.
 Defaulting to unpruned grid for atomic number  50.
 Defaulting to unpruned grid for atomic number  50.
 Defaulting to unpruned grid for atomic number  50.
 Defaulting to unpruned grid for atomic number  50.
 Defaulting to unpruned grid for atomic number  50.
 Defaulting to unpruned grid for atomic number  50.
 Defaulting to unpruned grid for atomic number  50.
 Defaulting to unpruned grid for atomic number  50.
 Defaulting to unpruned grid for atomic number  50.
 Defaulting to unpruned grid for atomic number  50.
 Defaulting to unpruned grid for atomic number  50.
 Defaulting to unpruned grid for atomic number  50.
 Defaulting to unpruned grid for atomic number  50.
 Defaulting to unpruned grid for atomic number  50.
 Defaulting to unpruned grid for atomic number  50.
 Defaulting to unpruned grid for atomic number  50.
 FoFCou: FMM=F IPFlag=           0 FMFlag=      100000 FMFlg1=           0
         NFxFlg=           0 DoJE=T BraDBF=F KetDBF=T FulRan=T
         Omega=  0.000000  0.000000  1.000000  0.000000  0.000000 ICntrl=     500 IOpCl=  0
         NMat0=    1 NMatS0=    1 NMatT0=    0 NMatD0=    1 NMtDS0=    0 NMtDT0=    0
         I1Cent=           4 NGrid=           0.
 Petite list used in FoFCou.
 Requested convergence on RMS density matrix=1.00D-08 within 128 cycles.
 Requested convergence on MAX density matrix=1.00D-06.
 Requested convergence on             energy=1.00D-06.
 No special actions if energy rises.
 Keep R1 ints in memory in canonical form, NReq=3134234.
 SCF Done:  E(RHF) =  -197.004661333     A.U. after   11 cycles
             Convg  =    0.3271D-08             -V/T =  2.0701
   1 Symmetry operations used in ECPInt.
 ECPInt:  NShTT=     780 NPrTT=    3579 LenC2=     766 LenP2D=    2862.
 LDataN:  DoStor=T MaxTD1= 6 Len=  172
 Calling FoFJK, ICntrl=      2127 FMM=F ISym2X=0 I1Cent= 0 IOpClX= 0 NMat=1 NMatS=1 NMatT=0.
 ***** Axes restored to original set *****
 -------------------------------------------------------------------
 Center     Atomic                   Forces (Hartrees/Bohr)
 Number     Number              X              Y              Z
 -------------------------------------------------------------------
      1        6           0.000420124   -0.000089288    0.000144089
      2        6          -0.000047274   -0.000143619    0.000016447
      3        1          -0.000090535   -0.000023831   -0.000019580
      4        1          -0.000026134   -0.000088060   -0.000016348
      5        1           0.000005557   -0.000067735    0.000022239
      6       50          -0.000147021    0.000065484    0.000029672
      7       50          -0.000001011    0.000141972   -0.000000046
      8        9          -0.000075198   -0.000049993   -0.000061096
      9        1          -0.000049053    0.000037414   -0.000050804
     10       35           0.000010543    0.000217656   -0.000064573
 -------------------------------------------------------------------
 Cartesian Forces:  Max     0.000420124 RMS     0.000110786

 GradGradGradGradGradGradGradGradGradGradGradGradGradGradGradGradGradGrad
 Berny optimization.
 Using GEDIIS/GDIIS optimizer.
 Internal  Forces:  Max     0.000367625 RMS     0.000121263
 Search for a local minimum.
 Step number   5 out of a maximum of   43
 All quantities printed in internal units (Hartrees-Bohrs-Radians)
 Mixed Optimization -- En-DIIS/RFO-DIIS
 Swaping is turned off.
 Update second derivatives using D2CorX and points    1    2    3    4    5
 DE= -6.00D-06 DEPred=-6.28D-06 R= 9.55D-01
 SS=  1.41D+00  RLast= 3.75D-02 DXNew= 5.0454D-01 1.1240D-01
 Trust test= 9.55D-01 RLast= 3.75D-02 DXMaxT set to 3.00D-01
     Eigenvalues ---    0.00184   0.00809   0.01716   0.02640   0.03163
     Eigenvalues ---    0.03476   0.04602   0.07129   0.09235   0.12059
     Eigenvalues ---    0.12234   0.12324   0.12418   0.13226   0.15529
     Eigenvalues ---    0.16034   0.16337   0.18369   0.22369   0.24345
     Eigenvalues ---    0.32880   0.37247   0.48666   0.609701000.00000
     Eigenvalues --- 1000.000001000.000001000.000001000.000001000.00000
     Eigenvalues --- 1000.000001000.000001000.00000
 En-DIIS/RFO-DIIS IScMMF=        0 using points:     5    4    3    2
 RFO step:  Lambda=-1.08369846D-06.
 DIIS coeffs:      1.20606     -0.08704     -0.21191      0.09289
 Iteration  1 RMS(Cart)=  0.00596513 RMS(Int)=  0.00001438
 Iteration  2 RMS(Cart)=  0.00001671 RMS(Int)=  0.00000176
 Iteration  3 RMS(Cart)=  0.00000000 RMS(Int)=  0.00000176
 Variable       Old X    -DE/DX   Delta X   Delta X   Delta X     New X
                                  (DIIS)     (GDIIS)  (Total)
    R1        2.50324  -0.00001  -0.00007   0.00001  -0.00006   2.50318
    R2        2.61461   0.00001  -0.00001   0.00024   0.00023   2.61484
    R3        2.02207  -0.00003   0.00002  -0.00005  -0.00003   2.02203
    R4        4.13278   0.00024   0.00074   0.00122   0.00196   4.13473
    R5        3.71977  -0.00014  -0.00091  -0.00043  -0.00134   3.71842
    R6        3.25361   0.00004   0.00005   0.00015   0.00020   3.25381
    R7        3.26711   0.00005   0.00008   0.00006   0.00014   3.26725
    R8        3.25873   0.00006   0.00005   0.00011   0.00016   3.25889
    R9        5.28228   0.00001   0.00030  -0.00004   0.00026   5.28254
    A1        2.09038  -0.00018  -0.00011  -0.00069  -0.00080   2.08957
    A2        2.24966   0.00014   0.00010   0.00069   0.00079   2.25044
    A3        1.94311   0.00003   0.00001   0.00003   0.00005   1.94316
    A4        2.21241   0.00009  -0.00060  -0.00156  -0.00216   2.21026
    A5        2.01626  -0.00037   0.00004  -0.00009  -0.00005   2.01621
    A6        2.05312   0.00028   0.00052   0.00177   0.00229   2.05541
    A7        1.76186   0.00015   0.00018   0.00039   0.00057   1.76243
    A8        1.95049  -0.00013  -0.00065  -0.00209  -0.00274   1.94774
    A9        1.99389  -0.00007   0.00004  -0.00101  -0.00097   1.99292
   A10        1.77891  -0.00011   0.00011  -0.00049  -0.00039   1.77852
   A11        1.93286   0.00020   0.00063   0.00187   0.00250   1.93536
   A12        2.00848   0.00005   0.00056   0.00101   0.00157   2.01004
    D1       -0.03053  -0.00006   0.00015  -0.00204  -0.00188  -0.03241
    D2       -3.11389  -0.00010   0.00095  -0.00461  -0.00366  -3.11756
    D3        3.10000   0.00006  -0.00023   0.00250   0.00228   3.10228
    D4        0.01664   0.00002   0.00057  -0.00007   0.00050   0.01714
    D5        0.52644   0.00002   0.00273   0.00608   0.00881   0.53525
    D6        2.65283  -0.00003   0.00258   0.00412   0.00670   2.65954
    D7       -2.67446   0.00004   0.00191   0.00864   0.01055  -2.66391
    D8       -0.54808  -0.00001   0.00176   0.00669   0.00845  -0.53963
    D9        3.07377  -0.00001   0.00001   0.00179   0.00179   3.07556
   D10        1.06824  -0.00004  -0.00092   0.00048  -0.00045   1.06779
   D11       -1.22282   0.00006  -0.00017   0.00025   0.00008  -1.22274
   D12        3.05484   0.00002  -0.00110  -0.00107  -0.00217   3.05267
         Item               Value     Threshold  Converged?
 Maximum Force            0.000368     0.000450     YES
 RMS     Force            0.000121     0.000300     YES
 Maximum Displacement     0.020740     0.001800     NO 
 RMS     Displacement     0.005964     0.001200     NO 
 Predicted change in Energy=-1.653401D-06
 GradGradGradGradGradGradGradGradGradGradGradGradGradGradGradGradGradGrad

                          Input orientation:                          
 ---------------------------------------------------------------------
 Center     Atomic      Atomic             Coordinates (Angstroms)
 Number     Number       Type             X           Y           Z
 ---------------------------------------------------------------------
      1          6           0        2.292558    2.953085   -0.085443
      2          6           0        1.904953    1.697588    0.082245
      3          1           0       -1.042965    2.186651   -0.425520
      4          1           0       -2.092180   -2.184503   -0.125833
      5          1           0        0.490850   -2.804934    0.243135
      6         50           0       -0.138554    0.997335    0.430232
      7         50           0       -0.505266   -1.611731   -0.503877
      8          9           0        1.351420    3.967444   -0.085733
      9          1           0        3.280803    3.338919   -0.224846
     10         35           0        3.348359    0.360437    0.103912
 ---------------------------------------------------------------------
                    Distance matrix (angstroms):
                    1          2          3          4          5
     1  C    0.000000
     2  C    1.324625   0.000000
     3  H    3.439300   3.031043   0.000000
     4  H    6.754433   5.575930   4.505291   0.000000
     5  H    6.042259   4.722104   5.264561   2.681998   0.000000
     6  Sn   3.162465   2.188006   1.721842   3.774911   3.858550
     7  Sn   5.370331   4.135732   3.837052   1.728954   1.724531
     8  F    1.383714   2.342405   3.003291   7.050279   6.834751
     9  H    1.070013   2.163616   4.479169   7.706291   6.763857
    10  Br   2.805779   1.967706   4.785299   6.010737   4.266651
                    6          7          8          9         10
     6  Sn   0.000000
     7  Sn   2.795401   0.000000
     8  F    3.362705   5.894855   0.000000
     9  H    4.195729   6.238678   2.033940   0.000000
    10  Br   3.559591   4.371416   4.127254   2.997332   0.000000
 Stoichiometry    C2H4BrFSn2
 Framework group  C1[X(C2H4BrFSn2)]
 Deg. of freedom    24
 Full point group                 C1      NOp   1
 Largest Abelian subgroup         C1      NOp   1
 Largest concise Abelian subgroup C1      NOp   1
                         Standard orientation:                         
 ---------------------------------------------------------------------
 Center     Atomic      Atomic             Coordinates (Angstroms)
 Number     Number       Type             X           Y           Z
 ---------------------------------------------------------------------
      1          6           0        2.959591   -0.679888    0.458983
      2          6           0        1.804769   -0.132248    0.110978
      3          1           0        0.090954   -2.561722    0.700654
      4          1           0       -3.753883   -0.406271   -0.231501
      5          1           0       -2.398739    1.860018   -0.701218
      6         50           0       -0.061827   -1.187242   -0.325115
      7         50           0       -2.294568    0.404646    0.218047
      8          9           0        3.049387   -2.052059    0.613086
      9          1           0        3.899373   -0.204573    0.648231
     10         35           0        1.827183    1.822391   -0.114295
 ---------------------------------------------------------------------
 Rotational constants (GHZ):      0.8809962      0.3978991      0.2833404
 Standard basis: SDD (6D, 10F)
 There are    65 symmetry adapted basis functions of A   symmetry.
 Integral buffers will be    131072 words long.
 Raffenetti 1 integral format.
 Two-electron integral symmetry is turned on.
    65 basis functions,   139 primitive gaussians,    65 cartesian basis functions
    20 alpha electrons       20 beta electrons
       nuclear repulsion energy       133.5632542640 Hartrees.
 NAtoms=   10 NActive=   10 NUniq=   10 SFac= 7.50D-01 NAtFMM=   80 NAOKFM=F Big=F
 One-electron integrals computed using PRISM.
   1 Symmetry operations used in ECPInt.
 ECPInt:  NShTT=     780 NPrTT=    3579 LenC2=     766 LenP2D=    2862.
 LDataN:  DoStor=T MaxTD1= 5 Len=  102
 NBasis=    65 RedAO= T  NBF=    65
 NBsUse=    65 1.00D-06 NBFU=    65
 Initial guess read from the read-write file.
 B after Tr=     0.000000    0.000000    0.000000
         Rot=    1.000000    0.000000    0.000000    0.000000 Ang=   0.00 deg.
 Initial guess orbital symmetries:
       Occupied  (A) (A) (A) (A) (A) (A) (A) (A) (A) (A) (A) (A)
                 (A) (A) (A) (A) (A) (A) (A) (A)
       Virtual   (A) (A) (A) (A) (A) (A) (A) (A) (A) (A) (A) (A)
                 (A) (A) (A) (A) (A) (A) (A) (A) (A) (A) (A) (A)
                 (A) (A) (A) (A) (A) (A) (A) (A) (A) (A) (A) (A)
                 (A) (A) (A) (A) (A) (A) (A) (A) (A)
 Harris functional with IExCor=  205 diagonalized for initial guess.
[...]
     3   1     0.04  -0.29   0.20    -0.09   0.74  -0.54     0.00   0.00   0.00
     4   1    -0.17  -0.11  -0.03     0.08   0.04   0.03     0.00   0.00   0.00
     5   1    -0.04   0.79  -0.47    -0.02   0.32  -0.20     0.00   0.00   0.00
     6  50     0.00   0.00   0.00     0.00  -0.01   0.00     0.00   0.00   0.00
     7  50     0.00  -0.01   0.00     0.00   0.00   0.00     0.00   0.00   0.00
     8   9     0.00   0.00   0.00     0.00   0.00   0.00     0.00   0.00   0.00
     9   1     0.00  -0.01   0.00     0.00   0.00   0.00    -0.88  -0.44  -0.18
    10  35     0.00   0.00   0.00     0.00   0.00   0.00     0.00   0.00   0.00

 -------------------
 - Thermochemistry -
 -------------------
 Temperature   298.150 Kelvin.  Pressure   1.00000 Atm.
 Atom     1 has atomic number  6 and mass  12.00000
 Atom     2 has atomic number  6 and mass  12.00000
 Atom     3 has atomic number  1 and mass   1.00783
 Atom     4 has atomic number  1 and mass   1.00783
 Atom     5 has atomic number  1 and mass   1.00783
 Atom     6 has atomic number 50 and mass 117.90180
 Atom     7 has atomic number 50 and mass 117.90180
 Atom     8 has atomic number  9 and mass  18.99840
 Atom     9 has atomic number  1 and mass   1.00783
 Atom    10 has atomic number 35 and mass  78.91834
 Molecular mass:   361.75164 amu.
 Principal axes and moments of inertia in atomic units:
                           1         2         3
     Eigenvalues --  2048.938824535.360906370.59911
           X            0.99979  -0.01714   0.01160
           Y            0.01733   0.99971  -0.01681
           Z           -0.01131   0.01701   0.99979
 This molecule is an asymmetric top.
 Rotational symmetry number  1.
 Warning -- assumption of classical behavior for rotation
           may cause significant error
 Rotational temperatures (Kelvin)      0.04227     0.01910     0.01360
 Rotational constants (GHZ):           0.88082     0.39793     0.28329
 Zero-point vibrational energy     120652.6 (Joules/Mol)
                                   28.83666 (Kcal/Mol)
 Warning -- explicit consideration of  13 degrees of freedom as
           vibrations may cause significant error
 Vibrational temperatures:     26.15    53.88   152.29   181.78   231.34
          (Kelvin)            272.34   387.92   419.34   486.02   523.58
                              548.39   703.61   737.27   931.34  1196.81
                             1214.15  1444.86  1631.79  2048.32  2581.16
                             2744.38  2760.91  2773.48  4971.19
 
 Zero-point correction=                           0.045954 (Hartree/Particle)
 Thermal correction to Energy=                    0.055891
 Thermal correction to Enthalpy=                  0.056835
 Thermal correction to Gibbs Free Energy=         0.005532
 Sum of electronic and zero-point Energies=           -196.958709
 Sum of electronic and thermal Energies=              -196.948773
 Sum of electronic and thermal Enthalpies=            -196.947829
 Sum of electronic and thermal Free Energies=         -196.999132
 
                     E (Thermal)             CV                S
                      KCal/Mol        Cal/Mol-Kelvin    Cal/Mol-Kelvin
 Total                   35.072             31.029            107.977
 Electronic               0.000              0.000              0.000
 Translational            0.889              2.981             43.551
 Rotational               0.889              2.981             32.448
 Vibrational             33.295             25.068             31.978
 Vibration     1          0.593              1.986              6.824
 Vibration     2          0.594              1.982              5.390
 Vibration     3          0.605              1.945              3.344
 Vibration     4          0.611              1.927              3.001
 Vibration     5          0.622              1.890              2.540
 Vibration     6          0.633              1.855              2.235
 Vibration     7          0.674              1.729              1.599
 Vibration     8          0.687              1.690              1.466
 Vibration     9          0.718              1.600              1.223
 Vibration    10          0.737              1.547              1.105
 Vibration    11          0.751              1.510              1.035
 Vibration    12          0.845              1.274              0.686
 Vibration    13          0.868              1.222              0.628
                       Q            Log10(Q)             Ln(Q)
 Total Bot       0.285526D-02         -2.544355         -5.858593
 Total V=0       0.391776D+19         18.593038         42.812051
 Vib (Bot)       0.383325D-17        -17.416433        -40.102818
 Vib (Bot)    1  0.113974D+02          1.056805          2.433384
 Vib (Bot)    2  0.552563D+01          0.742382          1.709397
 Vib (Bot)    3  0.193663D+01          0.287047          0.660949
 Vib (Bot)    4  0.161501D+01          0.208175          0.479340
 Vib (Bot)    5  0.125701D+01          0.099340          0.228739
 Vib (Bot)    6  0.105761D+01          0.024324          0.056008
 Vib (Bot)    7  0.716944D+00         -0.144514         -0.332757
 Vib (Bot)    8  0.655612D+00         -0.183353         -0.422187
 Vib (Bot)    9  0.550449D+00         -0.259283         -0.597022
 Vib (Bot)   10  0.502359D+00         -0.298986         -0.688441
 Vib (Bot)   11  0.473987D+00         -0.324234         -0.746576
 Vib (Bot)   12  0.339337D+00         -0.469369         -1.080762
 Vib (Bot)   13  0.317179D+00         -0.498696         -1.148289
 Vib (V=0)       0.525968D+04          3.720960          8.567826
 Vib (V=0)    1  0.119084D+02          1.075852          2.477240
 Vib (V=0)    2  0.604821D+01          0.781627          1.799762
 Vib (V=0)    3  0.250013D+01          0.397963          0.916344
 Vib (V=0)    4  0.219064D+01          0.340570          0.784192
 Vib (V=0)    5  0.185281D+01          0.267830          0.616701
 Vib (V=0)    6  0.166984D+01          0.222675          0.512729
 Vib (V=0)    7  0.137408D+01          0.138011          0.317782
 Vib (V=0)    8  0.132452D+01          0.122057          0.281047
 Vib (V=0)    9  0.124364D+01          0.094693          0.218039
 Vib (V=0)   10  0.120878D+01          0.082346          0.189609
 Vib (V=0)   11  0.118896D+01          0.075167          0.173077
 Vib (V=0)   12  0.110428D+01          0.043078          0.099190
 Vib (V=0)   13  0.109212D+01          0.038269          0.088118
 Electronic      0.100000D+01          0.000000          0.000000
 Translational   0.270440D+09          8.432071         19.415561
 Rotational      0.275427D+07          6.440007         14.828664
 ***** Axes restored to original set *****
 -------------------------------------------------------------------
 Center     Atomic                   Forces (Hartrees/Bohr)
 Number     Number              X              Y              Z
 -------------------------------------------------------------------
      1        6           0.000180158   -0.000083023   -0.000008740
      2        6          -0.000215661    0.000053481    0.000015923
      3        1          -0.000016446   -0.000023016   -0.000018781
      4        1           0.000009306   -0.000025954   -0.000014849
      5        1          -0.000004397   -0.000007114    0.000000166
      6       50           0.000101539    0.000014033    0.000025391
      7       50          -0.000036492    0.000024704    0.000004890
      8        9          -0.000051643    0.000044577   -0.000002926
      9        1          -0.000016893    0.000012485    0.000003771
     10       35           0.000050527   -0.000010174   -0.000004846
 -------------------------------------------------------------------
 Cartesian Forces:  Max     0.000215661 RMS     0.000061147

 GradGradGradGradGradGradGradGradGradGradGradGradGradGradGradGradGradGrad
 Berny optimization.
 Internal  Forces:  Max     0.000121082 RMS     0.000040101
 Search for a local minimum.
 Step number   1 out of a maximum of    2
 All quantities printed in internal units (Hartrees-Bohrs-Radians)
 Second derivative matrix not updated -- analytic derivatives used.
     Eigenvalues ---    0.00143   0.00706   0.01053   0.01743   0.02777
     Eigenvalues ---    0.03197   0.04813   0.06319   0.06406   0.06758
     Eigenvalues ---    0.08249   0.09932   0.12075   0.12943   0.13512
     Eigenvalues ---    0.13865   0.14073   0.14189   0.16632   0.22232
     Eigenvalues ---    0.24421   0.40930   0.41994   0.720161000.00000
     Eigenvalues --- 1000.000001000.000001000.000001000.000001000.00000
     Eigenvalues --- 1000.000001000.000001000.00000
 Angle between quadratic step and forces=  63.06 degrees.
 Linear search not attempted -- first point.
 Iteration  1 RMS(Cart)=  0.00386704 RMS(Int)=  0.00000552
 Iteration  2 RMS(Cart)=  0.00000929 RMS(Int)=  0.00000119
 Iteration  3 RMS(Cart)=  0.00000000 RMS(Int)=  0.00000119
 Variable       Old X    -DE/DX   Delta X   Delta X   Delta X     New X
                                 (Linear)    (Quad)   (Total)
    R1        2.50320   0.00001   0.00000   0.00000   0.00000   2.50321
    R2        2.61503   0.00007   0.00000   0.00021   0.00021   2.61524
    R3        2.02197  -0.00001   0.00000  -0.00005  -0.00005   2.02192
    R4        4.13535  -0.00004   0.00000  -0.00033  -0.00033   4.13502
    R5        3.71839   0.00004   0.00000   0.00077   0.00077   3.71916
    R6        3.25391   0.00000   0.00000   0.00022   0.00022   3.25413
    R7        3.26736   0.00000   0.00000  -0.00010  -0.00010   3.26726
    R8        3.25903   0.00000   0.00000  -0.00003  -0.00003   3.25900
    R9        5.28250   0.00002   0.00000   0.00071   0.00071   5.28321
    A1        2.08916  -0.00002   0.00000  -0.00012  -0.00012   2.08904
    A2        2.25086   0.00003   0.00000   0.00022   0.00022   2.25108
    A3        1.94313  -0.00001   0.00000  -0.00009  -0.00009   1.94304
    A4        2.21000   0.00012   0.00000   0.00129   0.00129   2.21129
    A5        2.01561  -0.00011   0.00000  -0.00080  -0.00080   2.01481
    A6        2.05617  -0.00001   0.00000  -0.00049  -0.00049   2.05568
    A7        1.76276   0.00002   0.00000   0.00013   0.00012   1.76289
    A8        1.94704   0.00003   0.00000  -0.00101  -0.00102   1.94602
    A9        1.99206  -0.00006   0.00000  -0.00285  -0.00285   1.98921
   A10        1.77822  -0.00003   0.00000  -0.00035  -0.00035   1.77787
   A11        1.93646   0.00008   0.00000   0.00222   0.00222   1.93868
   A12        2.01046   0.00001   0.00000   0.00155   0.00155   2.01201
    D1       -0.03168   0.00000   0.00000  -0.00035  -0.00035  -0.03203
    D2       -3.11485  -0.00001   0.00000  -0.00021  -0.00021  -3.11506
    D3        3.10075   0.00000   0.00000  -0.00032  -0.00032   3.10043
    D4        0.01757   0.00000   0.00000  -0.00018  -0.00018   0.01739
    D5        0.53822   0.00002   0.00000  -0.00066  -0.00066   0.53756
    D6        2.66136  -0.00002   0.00000  -0.00442  -0.00442   2.65694
    D7       -2.66299   0.00002   0.00000  -0.00082  -0.00082  -2.66381
    D8       -0.53986  -0.00002   0.00000  -0.00457  -0.00457  -0.54443
    D9        3.07521   0.00001   0.00000   0.00255   0.00255   3.07776
   D10        1.06678  -0.00001   0.00000   0.00045   0.00045   1.06723
   D11       -1.22368   0.00002   0.00000   0.00024   0.00025  -1.22343
   D12        3.05108   0.00000   0.00000  -0.00185  -0.00185   3.04922
         Item               Value     Threshold  Converged?
 Maximum Force            0.000121     0.000450     YES
 RMS     Force            0.000040     0.000300     YES
 Maximum Displacement     0.009626     0.001800     NO 
 RMS     Displacement     0.003868     0.001200     NO 
 Predicted change in Energy=-4.444429D-07
 GradGradGradGradGradGradGradGradGradGradGradGradGradGradGradGradGradGrad

 1\1\GINC-MALLOS71\Freq\RHF\SDD\C2H4Br1F1Sn2\MARLIN\24-Oct-2024\0\\#N G
 eom=AllCheck Guess=TCheck SCRF=Check GenChk RHF/SDD Freq\\Title Card R
 equired\\0,1\C,2.2929804065,2.9528183462,-0.0857016162\C,1.904792077,1
 .6973475541,0.0809441916\H,-1.0437167478,2.1862560527,-0.4278079225\H,
 -2.0921009474,-2.1858198091,-0.1250158266\H,0.4912930107,-2.8042811032
 ,0.2430791802\Sn,-0.1393085442,0.9983110188,0.429957547\Sn,-0.50578057
 39,-1.6111817421,-0.5029857463\F,1.3520435881,3.9674976459,-0.08311112
 99\H,3.281258724,3.338767321,-0.2242917546\Br,3.348517957,0.3605765356
 ,0.1032061871\\Version=EM64L-G09RevA.01\State=1-A\HF=-197.0046636\RMSD
 =1.127e-09\RMSF=6.115e-05\ZeroPoint=0.0459541\Thermal=0.0558909\Dipole
 =-0.178253,-0.3028547,-0.1124426\DipoleDeriv=0.0553399,-0.713898,-0.03
 57892,-0.0171821,1.4225731,-0.0095518,-0.0345623,-0.1184396,0.0989078,
 -0.1095689,-0.6874603,0.0527863,-0.687399,-0.4484359,-0.0005878,0.3106
 388,0.5171607,-0.215565,-0.3599424,-0.0045674,-0.0275445,0.0947368,-0.
 2635474,0.1366776,-0.0165996,0.4694045,-0.0109746,-0.4515192,-0.206718
 2,-0.034409,-0.1641293,-0.2880384,0.0790312,0.1669981,0.3928363,-0.000
 7795,-0.2553997,0.042099,-0.010476,0.0923884,-0.3989126,0.1172556,0.01
 43052,0.4717648,-0.0037592,1.2613091,0.5739301,0.1013284,0.332607,0.73
 66846,-0.2147086,-0.2849557,-0.8833091,0.1579441,0.7356263,0.1347418,0
 .0172405,0.0544735,0.6964831,-0.2055372,-0.1821489,-0.8757933,0.04518,
 -0.3708863,0.6853476,0.0012078,0.1703426,-1.2139512,0.0268707,0.033982
 7,0.0583094,-0.2092439,0.0146668,0.0298825,0.0161746,-0.0693993,-0.032
 7821,0.0237636,-0.0132851,-0.0388451,0.1981053,-0.5196255,0.1466429,-0
 .0805189,0.1935614,-0.2100732,0.0467868,0.0056267,0.0069114,-0.0598148
 \Polar=112.2791409,13.7408548,185.537252,13.0777994,42.724995,73.93418
 67\HyperPolar=-63.8004972,-48.4359123,7.3574641,10.7753845,33.7562334,
 -49.8190256,-116.7216188,29.9031323,-31.7935795,11.3409262\PG=C01 [X(C
 2H4Br1F1Sn2)]\NImag=0\\0.70845098,0.17768095,0.90126594,-0.07626558,-0
 .09392508,0.16435365,-0.16038020,-0.15860900,0.02550918,0.33522517,-0.
 18874216,-0.58344581,0.07196882,0.14130202,0.73750445,0.03208103,0.068
 82384,-0.07134223,-0.04265259,-0.08693716,0.08582548,-0.00033280,0.001
 26068,0.00044137,-0.00425373,0.00669421,-0.00634907,0.04934110,0.00333
 198,-0.00275523,0.00013919,-0.00089317,0.00363317,-0.00171432,-0.04508
 992,0.07465701,-0.00030151,-0.00036158,-0.00027300,0.00215623,0.000684
 84,0.00045708,0.03320859,-0.04615042,0.03752185,-0.00018534,0.00058221
 ,-0.00007115,0.00002172,0.00001941,-0.00017127,0.00013066,-0.00028103,
 0.00015464,0.11930108,-0.00094199,0.00042194,0.00019010,0.00036205,-0.
 00195743,-0.00227042,0.00029964,-0.00078683,-0.00121158,0.03727597,0.0
 2642523,-0.00040232,-0.00065519,0.00022471,-0.00027520,-0.00151485,0.0
 0024472,0.00021707,-0.00125370,-0.00162983,-0.02320355,-0.01121785,0.0
 1199851,0.00033996,0.00000765,-0.00003854,-0.00011160,0.00059484,-0.00
 033977,0.00015610,-0.00030478,-0.00070767,-0.00717407,0.00773959,-0.00
 536391,0.05791925,-0.00025307,0.00009309,0.00010048,0.00030248,-0.0008
 3911,-0.00117983,-0.00023353,-0.00156974,-0.00223004,-0.00221658,0.003
 42326,-0.00050226,-0.05057430,0.07213453,0.00083585,-0.00091409,0.0002
 8976,0.00000863,0.00030902,-0.00228052,-0.00056771,-0.00205854,-0.0000
 9325,0.00255145,-0.00094241,0.00090593,0.03185903,-0.03934718,0.029115
 33,0.00306004,-0.00792382,0.00136930,-0.10104926,-0.03181834,0.0199890
 5,-0.04205915,0.04596375,-0.03657037,-0.00041758,-0.00391963,-0.002692
 66,0.00009049,0.00305152,-0.00081382,0.16017553,-0.02126026,0.00223778
 ,0.00206034,-0.03241075,-0.03489841,0.01563936,0.03810573,-0.07724475,
 0.05487595,0.00241903,0.00460852,-0.00261084,-0.00021069,0.00333345,-0
 .00391691,-0.00036694,0.16748392,0.00069501,0.00195440,0.00548350,0.01
 133441,0.00315504,-0.02186655,-0.02794168,0.04224554,-0.03875874,0.001
 75069,0.00715983,0.00158388,0.00136536,0.00842609,0.00305159,0.0185192
 1,-0.05231009,0.06217826,-0.00241967,0.00034434,0.00030646,-0.00000471
 ,-0.00533052,-0.00181432,0.00044817,0.00261027,0.00046446,-0.11179671,
 -0.04115484,0.03126428,-0.05142667,0.05037612,-0.03406527,-0.00741856,
 -0.00603153,-0.00227269,0.17251804,0.00241245,-0.00017766,-0.00035371,
 0.00098703,0.00363945,-0.00246173,0.00015661,0.00286234,-0.00450445,-0
 .03716572,-0.03161209,0.01774041,0.04317292,-0.07658785,0.04709797,-0.
 00865100,-0.05814402,-0.01096884,-0.00072591,0.15927261,0.00049481,0.0
 0184675,-0.00073666,0.00134601,0.00443911,0.00276169,0.00044352,0.0085
 8170,0.00213789,0.01899090,0.00813535,-0.01337225,-0.02692732,0.034585
 90,-0.03097895,0.00006859,-0.01137237,-0.01381043,0.00633678,-0.046856
 54,0.05411464,-0.18876638,0.11501727,0.00482839,0.00941974,0.00593646,
 -0.00248797,0.00024845,-0.00383254,0.00029371,0.00023024,0.00017236,-0
 .00016518,0.00003270,-0.00017264,-0.00046389,-0.00701883,0.00395466,-0
 .00026259,0.00044414,-0.00010362,0.00096590,0.20840808,0.11707408,-0.1
 9374988,0.00233810,0.03759141,-0.04257843,0.00240620,-0.00170264,0.000
 24164,-0.00026613,-0.00041049,-0.00030079,0.00025524,-0.00016935,-0.00
 010100,0.00023445,0.00568007,-0.00078431,-0.00180163,0.00030900,0.0003
 6772,-0.00034245,-0.16283599,0.24771866,0.00358542,0.00333628,-0.04141
 354,-0.00402313,0.00350509,0.00640920,-0.00044199,-0.00014526,0.000482
 96,-0.00001070,-0.00021271,0.00000717,0.00001090,-0.00012141,-0.000237
 47,0.00010596,-0.00023291,-0.00341354,-0.00022175,-0.00006929,0.000362
 38,-0.00268618,-0.00431742,0.02188184,-0.34609484,-0.12458343,0.042424
 68,0.00208216,0.00656360,0.00083475,0.00003161,-0.00025185,0.00005460,
 0.00002021,0.00007551,-0.00000041,-0.00000609,0.00000902,-0.00000645,-
 0.00001111,0.00095804,0.00020456,0.00012818,-0.00003678,-0.00000255,-0
 .02489846,0.00200361,0.00321496,0.36671619,-0.12897928,-0.10568237,0.0
 1890190,-0.02951917,-0.00479712,0.00527913,-0.00000687,0.00021909,-0.0
 0006075,-0.00000096,-0.00013894,-0.00022517,0.00005755,-0.00005253,0.0
 0003821,0.00042690,-0.00214248,0.00012111,-0.00031272,0.00067231,0.000
 52951,0.04250383,-0.00415270,-0.00347236,0.11534645,0.11688930,0.04219
 014,0.01799454,-0.05839765,0.00501755,0.00259403,0.01801291,0.00063455
 ,0.00021384,-0.00013202,0.00003577,0.00034949,-0.00005739,0.00003094,0
 .00017982,0.00028055,-0.00065433,-0.00069884,0.00383251,0.00031785,0.0
 0020793,-0.00034829,-0.00066099,0.00028427,0.00752840,-0.04608533,-0.0
 2066332,0.03382163,-0.01367174,-0.00377685,0.00149589,-0.08094928,0.06
 478049,0.00091017,-0.00371041,-0.00125271,0.00124731,-0.00013021,0.000
 09135,0.00062188,0.00017994,-0.00028902,0.00066217,-0.00535157,0.01484
 271,-0.00339228,-0.00047220,-0.00004597,-0.00171663,0.00190032,0.00246
 030,0.00046652,0.00203216,0.00048427,-0.00082615,0.10017298,0.03967730
 ,-0.01820780,-0.00142013,0.04088709,-0.07626074,0.00241492,0.00051610,
 0.00074331,-0.00077584,-0.00022184,-0.00008286,-0.00001578,-0.00031343
 ,0.00016589,-0.00050052,-0.00244252,-0.00444971,0.00201855,-0.00008420
 ,-0.00029282,0.00045303,-0.00063979,-0.00666091,0.00173000,-0.00008415
 ,-0.00081455,-0.00046175,-0.07729456,0.10586020,-0.00291284,0.00190014
 ,0.00181146,0.00157890,0.00179606,-0.01822179,0.00035535,0.00014197,0.
 00028706,-0.00002678,0.00002019,0.00009455,0.00011099,0.00008843,-0.00
 005297,0.00067907,-0.00143369,0.00171952,-0.00031580,0.00016825,-0.000
 13003,0.00063879,0.00120937,0.00839260,-0.00063880,-0.00044826,-0.0045
 4065,0.00053113,-0.00344247,0.01064024\\-0.00018016,0.00008302,0.00000
 874,0.00021566,-0.00005348,-0.00001592,0.00001645,0.00002302,0.0000187
 8,-0.00000931,0.00002595,0.00001485,0.00000440,0.00000711,-0.00000017,
 -0.00010154,-0.00001403,-0.00002539,0.00003649,-0.00002470,-0.00000489
 ,0.00005164,-0.00004458,0.00000293,0.00001689,-0.00001249,-0.00000377,
 -0.00005053,0.00001017,0.00000485\\\@


 EDUCATION DOESN'T COST 
           ... IT PAYS!

 -- POSTMARK, UNIV. OF MISSISSIPPI, DEC 78
 Job cpu time:  0 days  0 hours  0 minutes 50.2 seconds.
 File lengths (MBytes):  RWF=     10 Int=      0 D2E=      0 Chk=      2 Scr=      1
 Normal termination of Gaussian 09 at Thu Oct 24 12:29:22 2024.
