 Entering Gaussian System, Link 0=g09
 Initial command:
 /u/local/G09/g09/l1.exe /tmp1/marlin/22845.mallos00.local/Gau-14398.inp -scrdir=/tmp1/marlin/22845.mallos00.local/
 Entering Link 1 = /u/local/G09/g09/l1.exe PID=     14400.
  
 Copyright (c) 1988,1990,1992,1993,1995,1998,2003,2009, Gaussian, Inc.
                  All Rights Reserved.
  
 This is part of the Gaussian(R) 09 program.  It is based on
 the Gaussian(R) 03 system (copyright 2003, Gaussian, Inc.),
 the Gaussian(R) 98 system (copyright 1998, Gaussian, Inc.),
 the Gaussian(R) 94 system (copyright 1995, Gaussian, Inc.),
 the Gaussian 92(TM) system (copyright 1992, Gaussian, Inc.),
 the Gaussian 90(TM) system (copyright 1990, Gaussian, Inc.),
 the Gaussian 88(TM) system (copyright 1988, Gaussian, Inc.),
 the Gaussian 86(TM) system (copyright 1986, Carnegie Mellon
 University), and the Gaussian 82(TM) system (copyright 1983,
 Carnegie Mellon University). Gaussian is a federally registered
 trademark of Gaussian, Inc.
  
 This software contains proprietary and confidential information,
 including trade secrets, belonging to Gaussian, Inc.
  
 This software is provided under written license and may be
 used, copied, transmitted, or stored only in accord with that
 written license.
  
 The following legend is applicable only to US Government
 contracts under FAR:
  
                    RESTRICTED RIGHTS LEGEND
  
 Use, reproduction and disclosure by the US Government is
 subject to restrictions as set forth in subparagraphs (a)
 and (c) of the Commercial Computer Software - Restricted
 Rights clause in FAR 52.227-19.
  
 Gaussian, Inc.
 340 Quinnipiac St., Bldg. 40, Wallingford CT 06492
  
  
 ---------------------------------------------------------------
 Warning -- This program may not be used in any manner that
 competes with the business of Gaussian, Inc. or will provide
 assistance to any competitor of Gaussian, Inc.  The licensee
 of this program is prohibited from giving any competitor of
 Gaussian, Inc. access to this program.  By using this program,
 the user acknowledges that Gaussian, Inc. is engaged in the
 business of creating and licensing software in the field of
 computational chemistry and represents and warrants to the
 licensee that it is not a competitor of Gaussian, Inc. and that
 it will not use this program in any manner prohibited above.
 ---------------------------------------------------------------
  

 Cite this work as:
 Gaussian 09, Revision A.01,
 M. J. Frisch, G. W. Trucks, H. B. Schlegel, G. E. Scuseria, 
 M. A. Robb, J. R. Cheeseman, G. Scalmani, V. Barone, B. Mennucci, 
 G. A. Petersson, H. Nakatsuji, M. Caricato, X. Li, H. P. Hratchian, 
 A. F. Izmaylov, J. Bloino, G. Zheng, J. L. Sonnenberg, M. Hada, 
 M. Ehara, K. Toyota, R. Fukuda, J. Hasegawa, M. Ishida, T. Nakajima, 
 Y. Honda, O. Kitao, H. Nakai, T. Vreven, J. A. Montgomery, Jr., 
 J. E. Peralta, F. Ogliaro, M. Bearpark, J. J. Heyd, E. Brothers, 
 K. N. Kudin, V. N. Staroverov, R. Kobayashi, J. Normand, 
 K. Raghavachari, A. Rendell, J. C. Burant, S. S. Iyengar, J. Tomasi, 
 M. Cossi, N. Rega, J. M. Millam, M. Klene, J. E. Knox, J. B. Cross, 
 V. Bakken, C. Adamo, J. Jaramillo, R. Gomperts, R. E. Stratmann, 
 O. Yazyev, A. J. Austin, R. Cammi, C. Pomelli, J. W. Ochterski, 
 R. L. Martin, K. Morokuma, V. G. Zakrzewski, G. A. Voth, 
 P. Salvador, J. J. Dannenberg, S. Dapprich, A. D. Daniels, 
 O. Farkas, J. B. Foresman, J. V. Ortiz, J. Cioslowski, 
 and D. J. Fox, Gaussian, Inc., Wallingford CT, 2009.
 
 ******************************************
 Gaussian 09:  EM64L-G09RevA.01  8-May-2009
                25-Oct-2024 
 ******************************************
 %mem=206GB
 %nproc=20
 Will use up to   20 processors via shared memory.
 %chk=5-sddmp2.chk
 ----------------------------------------
 # opt freq=noraman mp2/sdd geom=allcheck
 ----------------------------------------
 1/18=20,19=15,29=7,38=1/1,3;
 2/9=110,12=2,40=1/2;
 3/5=17,6=7,11=9,14=-4,16=1,25=1,30=1,71=1/1,2,3;
 4//1;
 5/5=2,38=5/2;
 8/6=4,10=1/1;
 9/15=2,16=-3/6;
 10/5=1/2;
 6/7=2,8=2,9=2,10=2/1;
 7/12=2/1,2,3,16;
 1/18=20,19=15/3(2);
 2/9=110/2;
 99//99;
 2/9=110/2;
 3/5=17,6=7,11=9,14=-2,16=1,25=1,30=1,71=1/1,2,3;
 4/5=5,16=3/1;
 5/5=2,38=5/2;
 8/6=4,10=1/1;
 9/15=2,16=-3/6;
 10/5=1/2;
 7/12=2/1,2,3,16;
 1/18=20,19=15/3(-8);
 2/9=110/2;
 6/7=2,8=2,9=2,10=2/1;
 99//99;
 -------------------
 Title Card Required
 -------------------
 Redundant internal coordinates taken from checkpoint file:
 5-sddmp2.chk
 Charge =  0 Multiplicity = 1
 C,0,2.2929804065,2.9528183462,-0.0857016162
 C,0,1.904792077,1.6973475541,0.0809441916
 H,0,-1.0437167478,2.1862560527,-0.4278079225
 H,0,-2.0921009474,-2.1858198091,-0.1250158266
 H,0,0.4912930107,-2.8042811032,0.2430791802
 Sn,0,-0.1393085442,0.9983110188,0.429957547
 Sn,0,-0.5057805739,-1.6111817421,-0.5029857463
 F,0,1.3520435881,3.9674976459,-0.0831111299
 H,0,3.281258724,3.338767321,-0.2242917546
 Br,0,3.348517957,0.3605765356,0.1032061871
 Recover connectivity data from disk.

 GradGradGradGradGradGradGradGradGradGradGradGradGradGradGradGradGradGrad
 Berny optimization.
 Initialization pass.
                           ----------------------------
                           !    Initial Parameters    !
                           ! (Angstroms and Degrees)  !
 --------------------------                            --------------------------
 ! Name  Definition              Value          Derivative Info.                !
 --------------------------------------------------------------------------------
 ! R1    R(1,2)                  1.3246         estimate D2E/DX2                !
 ! R2    R(1,8)                  1.3838         estimate D2E/DX2                !
 ! R3    R(1,9)                  1.07           estimate D2E/DX2                !
 ! R4    R(2,6)                  2.1883         estimate D2E/DX2                !
 ! R5    R(2,10)                 1.9677         estimate D2E/DX2                !
 ! R6    R(3,6)                  1.7219         estimate D2E/DX2                !
 ! R7    R(4,7)                  1.729          estimate D2E/DX2                !
 ! R8    R(5,7)                  1.7246         estimate D2E/DX2                !
 ! R9    R(6,7)                  2.7954         estimate D2E/DX2                !
 ! A1    A(2,1,8)              119.7002         estimate D2E/DX2                !
 ! A2    A(2,1,9)              128.9647         estimate D2E/DX2                !
 ! A3    A(8,1,9)              111.3333         estimate D2E/DX2                !
 ! A4    A(1,2,6)              126.6239         estimate D2E/DX2                !
 ! A5    A(1,2,10)             115.4862         estimate D2E/DX2                !
 ! A6    A(6,2,10)             117.8099         estimate D2E/DX2                !
 ! A7    A(2,6,3)              100.9989         estimate D2E/DX2                !
 ! A8    A(2,6,7)              111.557          estimate D2E/DX2                !
 ! A9    A(3,6,7)              114.1366         estimate D2E/DX2                !
 ! A10   A(4,7,5)              101.8846         estimate D2E/DX2                !
 ! A11   A(4,7,6)              110.9512         estimate D2E/DX2                !
 ! A12   A(5,7,6)              115.1908         estimate D2E/DX2                !
 ! D1    D(8,1,2,6)             -1.815          estimate D2E/DX2                !
 ! D2    D(8,1,2,10)          -178.4678         estimate D2E/DX2                !
 ! D3    D(9,1,2,6)            177.6596         estimate D2E/DX2                !
 ! D4    D(9,1,2,10)             1.0068         estimate D2E/DX2                !
 ! D5    D(1,2,6,3)             30.8378         estimate D2E/DX2                !
 ! D6    D(1,2,6,7)            152.4844         estimate D2E/DX2                !
 ! D7    D(10,2,6,3)          -152.5782         estimate D2E/DX2                !
 ! D8    D(10,2,6,7)           -30.9316         estimate D2E/DX2                !
 ! D9    D(2,6,7,4)            176.1967         estimate D2E/DX2                !
 ! D10   D(2,6,7,5)             61.1222         estimate D2E/DX2                !
 ! D11   D(3,6,7,4)            -70.1118         estimate D2E/DX2                !
 ! D12   D(3,6,7,5)            174.8138         estimate D2E/DX2                !
 --------------------------------------------------------------------------------
 Trust Radius=3.00D-01 FncErr=1.00D-07 GrdErr=1.00D-07
 Number of steps in this run=  43 maximum allowed number of steps= 100.
 GradGradGradGradGradGradGradGradGradGradGradGradGradGradGradGradGradGrad

                          Input orientation:                          
 ---------------------------------------------------------------------
 Center     Atomic      Atomic             Coordinates (Angstroms)
 Number     Number       Type             X           Y           Z
 ---------------------------------------------------------------------
      1          6           0        2.292980    2.952818   -0.085702
      2          6           0        1.904792    1.697348    0.080944
      3          1           0       -1.043717    2.186256   -0.427808
      4          1           0       -2.092101   -2.185820   -0.125016
      5          1           0        0.491293   -2.804281    0.243079
      6         50           0       -0.139309    0.998311    0.429958
      7         50           0       -0.505781   -1.611182   -0.502986
      8          9           0        1.352044    3.967498   -0.083111
      9          1           0        3.281259    3.338767   -0.224292
     10         35           0        3.348518    0.360577    0.103206
 ---------------------------------------------------------------------
                    Distance matrix (angstroms):
                    1          2          3          4          5
     1  C    0.000000
     2  C    1.324639   0.000000
     3  H    3.440669   3.031759   0.000000
     4  H    6.755449   5.576429   4.506200   0.000000
     5  H    6.041388   4.721115   5.264200   2.681774   0.000000
     6  Sn   3.162599   2.188335   1.721897   3.776252   3.859053
     7  Sn   5.370036   4.134997   3.836087   1.729012   1.724603
     8  F    1.383815   2.342227   3.005213   7.051752   6.834053
     9  H    1.069980   2.163813   4.480526   7.707393   6.763090
    10  Br   2.805274   1.967688   4.786106   6.011369   4.266102
                    6          7          8          9         10
     6  Sn   0.000000
     7  Sn   2.795378   0.000000
     8  F    3.362059   5.894868   0.000000
     9  H    4.195957   6.238696   2.033987   0.000000
    10  Br   3.560675   4.371603   4.126803   2.996898   0.000000
 Stoichiometry    C2H4BrFSn2
 Framework group  C1[X(C2H4BrFSn2)]
 Deg. of freedom    24
 Full point group                 C1      NOp   1
 Largest Abelian subgroup         C1      NOp   1
 Largest concise Abelian subgroup C1      NOp   1
                         Standard orientation:                         
 ---------------------------------------------------------------------
 Center     Atomic      Atomic             Coordinates (Angstroms)
 Number     Number       Type             X           Y           Z
 ---------------------------------------------------------------------
      1          6           0        2.959349   -0.679711    0.458962
      2          6           0        1.804176   -0.132094    0.112035
      3          1           0        0.088994   -2.561052    0.703537
      4          1           0       -3.755018   -0.403600   -0.231779
      5          1           0       -2.397582    1.861129   -0.701120
      6         50           0       -0.062272   -1.187913   -0.324342
      7         50           0       -2.294404    0.405223    0.217546
      8          9           0        3.049362   -2.052245    0.610591
      9          1           0        3.899514   -0.204812    0.647160
     10         35           0        1.827785    1.822395   -0.114266
 ---------------------------------------------------------------------
 Rotational constants (GHZ):      0.8808175      0.3979267      0.2832922
 Standard basis: SDD (6D, 10F)
 There are    65 symmetry adapted basis functions of A   symmetry.
 Integral buffers will be    131072 words long.
 Raffenetti 1 integral format.
 Two-electron integral symmetry is turned on.
    65 basis functions,   139 primitive gaussians,    65 cartesian basis functions
    20 alpha electrons       20 beta electrons
       nuclear repulsion energy       133.5623252117 Hartrees.
 NAtoms=   10 NActive=   10 NUniq=   10 SFac= 7.50D-01 NAtFMM=   80 NAOKFM=F Big=F
 One-electron integrals computed using PRISM.
   1 Symmetry operations used in ECPInt.
 ECPInt:  NShTT=     780 NPrTT=    3579 LenC2=     766 LenP2D=    2862.
 LDataN:  DoStor=T MaxTD1= 5 Len=  102
 NBasis=    65 RedAO= T  NBF=    65
 NBsUse=    65 1.00D-06 NBFU=    65
 Harris functional with IExCor=  205 diagonalized for initial guess.
 ExpMin= 3.61D-02 ExpMax= 9.99D+03 ExpMxC= 1.51D+03 IAcc=3 IRadAn=         0 AccDes= 0.00D+00
 HarFok:  IExCor=  205 AccDes= 0.00D+00 IRadAn=         0 IDoV= 1
 ScaDFX=  1.000000  1.000000  1.000000  1.000000
 Defaulting to unpruned grid for atomic number  50.
 Defaulting to unpruned grid for atomic number  50.
 Defaulting to unpruned grid for atomic number  50.
 Defaulting to unpruned grid for atomic number  50.
 Defaulting to unpruned grid for atomic number  50.
 Defaulting to unpruned grid for atomic number  50.
 Defaulting to unpruned grid for atomic number  50.
 Defaulting to unpruned grid for atomic number  50.
 Defaulting to unpruned grid for atomic number  50.
 Defaulting to unpruned grid for atomic number  50.
 Defaulting to unpruned grid for atomic number  50.
 Defaulting to unpruned grid for atomic number  50.
 Defaulting to unpruned grid for atomic number  50.
 Defaulting to unpruned grid for atomic number  50.
 Defaulting to unpruned grid for atomic number  50.
 Defaulting to unpruned grid for atomic number  50.
 Defaulting to unpruned grid for atomic number  50.
 Defaulting to unpruned grid for atomic number  50.
 Defaulting to unpruned grid for atomic number  50.
 Defaulting to unpruned grid for atomic number  50.
 FoFCou: FMM=F IPFlag=           0 FMFlag=      100000 FMFlg1=           0
         NFxFlg=           0 DoJE=T BraDBF=F KetDBF=T FulRan=T
         Omega=  0.000000  0.000000  1.000000  0.000000  0.000000 ICntrl=     500 IOpCl=  0
         NMat0=    1 NMatS0=    1 NMatT0=    0 NMatD0=    1 NMtDS0=    0 NMtDT0=    0
         I1Cent=           4 NGrid=           0.
 Petite list used in FoFCou.
 Initial guess orbital symmetries:
       Occupied  (A) (A) (A) (A) (A) (A) (A) (A) (A) (A) (A) (A)
                 (A) (A) (A) (A) (A) (A) (A) (A)
       Virtual   (A) (A) (A) (A) (A) (A) (A) (A) (A) (A) (A) (A)
                 (A) (A) (A) (A) (A) (A) (A) (A) (A) (A) (A) (A)
                 (A) (A) (A) (A) (A) (A) (A) (A) (A) (A) (A) (A)
                 (A) (A) (A) (A) (A) (A) (A) (A) (A)
 The electronic state of the initial guess is 1-A.
 Requested convergence on RMS density matrix=1.00D-08 within 128 cycles.
 Requested convergence on MAX density matrix=1.00D-06.
 Requested convergence on             energy=1.00D-06.
 No special actions if energy rises.
 Keep R1 ints in memory in canonical form, NReq=3134234.
 SCF Done:  E(RHF) =  -197.004663632     A.U. after   15 cycles
             Convg  =    0.2830D-08             -V/T =  2.0701
 ExpMin= 3.61D-02 ExpMax= 9.99D+03 ExpMxC= 1.51D+03 IAcc=3 IRadAn=         5 AccDes= 0.00D+00
 HarFok:  IExCor=  205 AccDes= 0.00D+00 IRadAn=         5 IDoV=-2
 ScaDFX=  1.000000  1.000000  1.000000  1.000000
 Defaulting to unpruned grid for atomic number  50.
 Defaulting to unpruned grid for atomic number  50.
 Defaulting to unpruned grid for atomic number  50.
 Defaulting to unpruned grid for atomic number  50.
 Defaulting to unpruned grid for atomic number  50.
 Defaulting to unpruned grid for atomic number  50.
 Defaulting to unpruned grid for atomic number  50.
 Defaulting to unpruned grid for atomic number  50.
 Defaulting to unpruned grid for atomic number  50.
 Defaulting to unpruned grid for atomic number  50.
 Defaulting to unpruned grid for atomic number  50.
 Defaulting to unpruned grid for atomic number  50.
 Defaulting to unpruned grid for atomic number  50.
 Defaulting to unpruned grid for atomic number  50.
 Defaulting to unpruned grid for atomic number  50.
 Defaulting to unpruned grid for atomic number  50.
 Defaulting to unpruned grid for atomic number  50.
 Defaulting to unpruned grid for atomic number  50.
 Defaulting to unpruned grid for atomic number  50.
 Defaulting to unpruned grid for atomic number  50.
 Range of M.O.s used for correlation:     4    65
 NBasis=    65 NAE=    20 NBE=    20 NFC=     3 NFV=     0
 NROrb=     62 NOA=    17 NOB=    17 NVA=    45 NVB=    45
 Fully direct method using O(ONN) memory.
 JobTyp=1 Pass  1:  I=   4 to  20 NPSUse= 20 ParTrn=T ParDer=T DoDerP=T.
 Spin components of T(2) and E(2):
     alpha-alpha T2 =       0.2070865789D-01 E2=     -0.4552326117D-01
     alpha-beta  T2 =       0.1587069907D+00 E2=     -0.3120775114D+00
     beta-beta   T2 =       0.2070865789D-01 E2=     -0.4552326117D-01
 ANorm=    0.1095501851D+01
 E2 =    -0.4031240338D+00 EUMP2 =    -0.19740778766580D+03
          IDoAtm=1111111111
          Differentiating once with respect to electric field.
                with respect to dipole field.
          Differentiating once with respect to nuclear coordinates.
          Keep R1 ints in memory in canonical form, NReq=3102463.
          There are     1 degrees of freedom in the 1st order CPHF.  IDoFFX=0.
 LinEq1:  Iter=  0 NonCon=     1 RMS=8.87D-03 Max=9.71D-02
 AX will form     1 AO Fock derivatives at one time.
 LinEq1:  Iter=  1 NonCon=     1 RMS=3.39D-03 Max=3.43D-02
 LinEq1:  Iter=  2 NonCon=     1 RMS=1.19D-03 Max=1.47D-02
 LinEq1:  Iter=  3 NonCon=     1 RMS=3.77D-04 Max=3.49D-03
 LinEq1:  Iter=  4 NonCon=     1 RMS=1.27D-04 Max=1.04D-03
 LinEq1:  Iter=  5 NonCon=     1 RMS=4.18D-05 Max=2.78D-04
 LinEq1:  Iter=  6 NonCon=     1 RMS=1.26D-05 Max=9.84D-05
 LinEq1:  Iter=  7 NonCon=     1 RMS=4.06D-06 Max=5.41D-05
 LinEq1:  Iter=  8 NonCon=     1 RMS=7.53D-07 Max=6.19D-06
 LinEq1:  Iter=  9 NonCon=     1 RMS=1.62D-07 Max=2.93D-06
 LinEq1:  Iter= 10 NonCon=     1 RMS=3.90D-08 Max=4.41D-07
 LinEq1:  Iter= 11 NonCon=     1 RMS=1.03D-08 Max=1.32D-07
 LinEq1:  Iter= 12 NonCon=     1 RMS=1.99D-09 Max=1.24D-08
 LinEq1:  Iter= 13 NonCon=     1 RMS=4.04D-10 Max=3.37D-09
 LinEq1:  Iter= 14 NonCon=     0 RMS=6.15D-11 Max=3.75D-10
 Linear equations converged to 1.000D-10 1.000D-09 after    14 iterations.
 End of Minotr Frequency-dependent properties file   721 does not exist.
 End of Minotr Frequency-dependent properties file   722 does not exist.

 **********************************************************************

            Population analysis using the SCF density.

 **********************************************************************

 Orbital symmetries:
       Occupied  (A) (A) (A) (A) (A) (A) (A) (A) (A) (A) (A) (A)
                 (A) (A) (A) (A) (A) (A) (A) (A)
       Virtual   (A) (A) (A) (A) (A) (A) (A) (A) (A) (A) (A) (A)
                 (A) (A) (A) (A) (A) (A) (A) (A) (A) (A) (A) (A)
                 (A) (A) (A) (A) (A) (A) (A) (A) (A) (A) (A) (A)
                 (A) (A) (A) (A) (A) (A) (A) (A) (A)
 The electronic state is 1-A.
 Alpha  occ. eigenvalues --  -26.31171 -11.36660 -11.31190  -1.62511  -1.11775
 Alpha  occ. eigenvalues --   -1.00969  -0.82180  -0.72519  -0.69600  -0.69156
 Alpha  occ. eigenvalues --   -0.64790  -0.60717  -0.55536  -0.47888  -0.46634
 Alpha  occ. eigenvalues --   -0.44142  -0.40752  -0.39875  -0.37795  -0.28110
 Alpha virt. eigenvalues --   -0.03055   0.08002   0.08858   0.09554   0.10554
 Alpha virt. eigenvalues --    0.11166   0.13482   0.14626   0.16971   0.20064
 Alpha virt. eigenvalues --    0.24290   0.27745   0.29666   0.42103   0.44334
 Alpha virt. eigenvalues --    0.46726   0.48716   0.49366   0.50629   0.52611
 Alpha virt. eigenvalues --    0.56124   0.57736   0.61073   0.62660   0.63344
 Alpha virt. eigenvalues --    0.63927   0.65804   0.78390   0.88974   1.13975
 Alpha virt. eigenvalues --    1.14247   1.15093   1.23886   1.25516   1.29872
 Alpha virt. eigenvalues --    1.31998   1.44507   1.47386   2.24482   6.80129
 Alpha virt. eigenvalues --   12.19164  13.58533  23.68007  24.00230  55.14675
          Condensed to atoms (all electrons):
              1          2          3          4          5          6
     1  C    4.961633   0.369118   0.002376   0.000000  -0.000002  -0.049618
     2  C    0.369118   6.075903  -0.026315   0.000072   0.000039   0.164545
     3  H    0.002376  -0.026315   0.838015   0.000025   0.000008   0.357444
     4  H    0.000000   0.000072   0.000025   0.870214  -0.012371  -0.007549
     5  H   -0.000002   0.000039   0.000008  -0.012371   0.848057  -0.009164
     6  Sn  -0.049618   0.164545   0.357444  -0.007549  -0.009164   2.722610
     7  Sn  -0.000450  -0.021948  -0.010808   0.330965   0.338760   0.243981
     8  F    0.190360  -0.049979  -0.000579   0.000000   0.000000   0.002597
     9  H    0.398516  -0.054428  -0.000007   0.000000   0.000000   0.001333
    10  Br  -0.088954   0.176545   0.001167   0.000059   0.002321  -0.041523
              7          8          9         10
     1  C   -0.000450   0.190360   0.398516  -0.088954
     2  C   -0.021948  -0.049979  -0.054428   0.176545
     3  H   -0.010808  -0.000579  -0.000007   0.001167
     4  H    0.330965   0.000000   0.000000   0.000059
     5  H    0.338760   0.000000   0.000000   0.002321
     6  Sn   0.243981   0.002597   0.001333  -0.041523
     7  Sn   2.743896   0.000051  -0.000012  -0.006723
     8  F    0.000051   9.247219  -0.042373   0.002266
     9  H   -0.000012  -0.042373   0.459897  -0.001710
    10  Br  -0.006723   0.002266  -0.001710   6.916478
 Mulliken atomic charges:
              1
     1  C    0.217020
     2  C   -0.633553
     3  H   -0.161328
     4  H   -0.181416
     5  H   -0.167649
     6  Sn   0.615344
     7  Sn   0.382286
     8  F   -0.349562
     9  H    0.238783
    10  Br   0.040074
 Sum of Mulliken atomic charges =   0.00000
 Mulliken charges with hydrogens summed into heavy atoms:
              1
     1  C    0.455804
     2  C   -0.633553
     6  Sn   0.454016
     7  Sn   0.033222
     8  F   -0.349562
    10  Br   0.040074
 Sum of Mulliken charges with hydrogens summed into heavy atoms =   0.00000
 Electronic spatial extent (au):  <R**2>=           1305.2574
 Charge=              0.0000 electrons
 Dipole moment (field-independent basis, Debye):
    X=             -0.8954    Y=              0.2193    Z=              0.1723  Tot=              0.9378
 Quadrupole moment (field-independent basis, Debye-Ang):
   XX=            -63.8126   YY=            -72.7252   ZZ=            -69.0869
   XY=              1.6208   XZ=             -3.2413   YZ=              4.2265
 Traceless Quadrupole moment (field-independent basis, Debye-Ang):
   XX=              4.7290   YY=             -4.1837   ZZ=             -0.5453
   XY=              1.6208   XZ=             -3.2413   YZ=              4.2265
 Octapole moment (field-independent basis, Debye-Ang**2):
  XXX=            -63.1187  YYY=             13.5929  ZZZ=             -7.9823  XYY=            -47.8968
  XXY=             18.9242  XXZ=             12.5571  XZZ=            -28.7315  YZZ=              0.8453
  YYZ=             -9.6133  XYZ=              1.9512
 Hexadecapole moment (field-independent basis, Debye-Ang**3):
 XXXX=          -1685.4155 YYYY=           -778.6516 ZZZZ=           -174.5868 XXXY=             40.2561
 XXXZ=            -56.8353 YYYX=             75.3664 YYYZ=             46.2970 ZZZX=            -41.4707
 ZZZY=             24.4805 XXYY=           -480.9952 XXZZ=           -321.4802 YYZZ=           -160.2784
 XXYZ=             33.0148 YYXZ=            -36.5637 ZZXY=              6.1381
 N-N= 1.335623252117D+02 E-N=-7.245593301905D+02  KE= 1.841047857400D+02
   1 Symmetry operations used in ECPInt.
 ECPInt:  NShTT=     780 NPrTT=    3579 LenC2=     766 LenP2D=    2862.
 LDataN:  DoStor=T MaxTD1= 6 Len=  172
 Calling FoFJK, ICntrl=      2127 FMM=F ISym2X=0 I1Cent= 0 IOpClX= 0 NMat=1 NMatS=1 NMatT=0.
 ***** Axes restored to original set *****
 -------------------------------------------------------------------
 Center     Atomic                   Forces (Hartrees/Bohr)
 Number     Number              X              Y              Z
 -------------------------------------------------------------------
      1        6           0.018514530    0.014152897   -0.003432391
      2        6          -0.013339114   -0.040163685    0.006377569
      3        1          -0.003704356    0.002711331   -0.001878160
      4        1          -0.004261666   -0.000243242    0.000280350
      5        1           0.003650939   -0.001989886    0.001599427
      6       50          -0.000605849   -0.007748119   -0.000665452
      7       50           0.001452289    0.007968667    0.000133426
      8        9          -0.023325519    0.026861946   -0.000005631
      9        1           0.015161602    0.005351536   -0.002443424
     10       35           0.006457144   -0.006901444    0.000034287
 -------------------------------------------------------------------
 Cartesian Forces:  Max     0.040163685 RMS     0.011825497

 GradGradGradGradGradGradGradGradGradGradGradGradGradGradGradGradGradGrad
 Berny optimization.
 Internal  Forces:  Max     0.047718473 RMS     0.011075780
 Search for a local minimum.
 Step number   1 out of a maximum of   43
 All quantities printed in internal units (Hartrees-Bohrs-Radians)
 Mixed Optimization -- RFO/linear search
 Second derivative matrix not updated -- first step.
     Eigenvalues ---    0.00230   0.00230   0.01637   0.03086   0.03086
     Eigenvalues ---    0.03575   0.04690   0.07032   0.11362   0.11687
     Eigenvalues ---    0.12027   0.12152   0.12229   0.15307   0.16000
     Eigenvalues ---    0.16000   0.16000   0.22000   0.23550   0.24980
     Eigenvalues ---    0.25000   0.37233   0.48412   0.607901000.00000
     Eigenvalues --- 1000.000001000.000001000.000001000.000001000.00000
     Eigenvalues --- 1000.000001000.000001000.00000
 RFO step:  Lambda=-8.83954197D-03 EMin= 2.30000000D-03
 Linear search not attempted -- first point.
 Iteration  1 RMS(Cart)=  0.04037562 RMS(Int)=  0.00020594
 Iteration  2 RMS(Cart)=  0.00026363 RMS(Int)=  0.00003066
 Iteration  3 RMS(Cart)=  0.00000004 RMS(Int)=  0.00003066
 Variable       Old X    -DE/DX   Delta X   Delta X   Delta X     New X
                                 (Linear)    (Quad)   (Total)
    R1        2.50320   0.04772   0.00000   0.07737   0.07737   2.58058
    R2        2.61503   0.03556   0.00000   0.07213   0.07213   2.68716
    R3        2.02197   0.01625   0.00000   0.04263   0.04263   2.06460
    R4        4.13535   0.00293   0.00000   0.02394   0.02394   4.15930
    R5        3.71839   0.00943   0.00000   0.05822   0.05822   3.77661
    R6        3.25391   0.00475   0.00000   0.03624   0.03624   3.29015
    R7        3.26736   0.00405   0.00000   0.03138   0.03138   3.29874
    R8        3.25903   0.00418   0.00000   0.03206   0.03206   3.29109
    R9        5.28250  -0.00614   0.00000  -0.07752  -0.07752   5.20498
    A1        2.08916   0.00237   0.00000   0.01034   0.01034   2.09950
    A2        2.25086  -0.00170   0.00000  -0.00821  -0.00821   2.24265
    A3        1.94313  -0.00067   0.00000  -0.00210  -0.00211   1.94103
    A4        2.21000  -0.00281   0.00000  -0.01066  -0.01068   2.19932
    A5        2.01561   0.00262   0.00000   0.01037   0.01035   2.02596
    A6        2.05617   0.00020   0.00000   0.00096   0.00093   2.05710
    A7        1.76276   0.00255   0.00000   0.02621   0.02616   1.78892
    A8        1.94704  -0.00152   0.00000  -0.00210  -0.00214   1.94489
    A9        1.99206  -0.00054   0.00000   0.00202   0.00191   1.99397
   A10        1.77822   0.00267   0.00000   0.02364   0.02365   1.80187
   A11        1.93646  -0.00119   0.00000  -0.00277  -0.00276   1.93370
   A12        2.01046  -0.00202   0.00000  -0.00803  -0.00803   2.00243
    D1       -0.03168   0.00027   0.00000   0.00990   0.00992  -0.02176
    D2       -3.11485  -0.00005   0.00000  -0.00435  -0.00437  -3.11922
    D3        3.10075   0.00046   0.00000   0.01451   0.01453   3.11527
    D4        0.01757   0.00013   0.00000   0.00026   0.00024   0.01781
    D5        0.53822  -0.00017   0.00000  -0.00682  -0.00685   0.53137
    D6        2.66136  -0.00003   0.00000   0.00987   0.00993   2.67129
    D7       -2.66299   0.00023   0.00000   0.00799   0.00793  -2.65507
    D8       -0.53986   0.00037   0.00000   0.02468   0.02471  -0.51515
    D9        3.07521  -0.00029   0.00000  -0.00510  -0.00510   3.07011
   D10        1.06678  -0.00158   0.00000  -0.02822  -0.02821   1.03857
   D11       -1.22368   0.00158   0.00000   0.02788   0.02787  -1.19581
   D12        3.05108   0.00029   0.00000   0.00476   0.00476   3.05584
         Item               Value     Threshold  Converged?
 Maximum Force            0.047718     0.000450     NO 
 RMS     Force            0.011076     0.000300     NO 
 Maximum Displacement     0.107855     0.001800     NO 
 RMS     Displacement     0.040440     0.001200     NO 
 Predicted change in Energy=-4.556080D-03
 GradGradGradGradGradGradGradGradGradGradGradGradGradGradGradGradGradGrad

                          Input orientation:                          
 ---------------------------------------------------------------------
 Center     Atomic      Atomic             Coordinates (Angstroms)
 Number     Number       Type             X           Y           Z
 ---------------------------------------------------------------------
      1          6           0        2.302311    2.967573   -0.079544
      2          6           0        1.908141    1.670326    0.083543
      3          1           0       -1.093704    2.168948   -0.440479
      4          1           0       -2.111804   -2.174924   -0.124397
      5          1           0        0.525630   -2.785039    0.255673
      6         50           0       -0.154550    0.976094    0.411828
      7         50           0       -0.505950   -1.600386   -0.496324
      8          9           0        1.341277    4.015615   -0.071813
      9          1           0        3.312500    3.358583   -0.221937
     10         35           0        3.366127    0.303502    0.091722
 ---------------------------------------------------------------------
                    Distance matrix (angstroms):
                    1          2          3          4          5
     1  C    0.000000
     2  C    1.365582   0.000000
     3  H    3.507278   3.087766   0.000000
     4  H    6.777293   5.566790   4.472769   0.000000
     5  H    6.030050   4.668109   5.258218   2.733633   0.000000
     6  Sn   3.200563   2.201006   1.741074   3.747972   3.825331
     7  Sn   5.378316   4.106293   3.815292   1.745620   1.741569
     8  F    1.421984   2.417819   3.078186   7.088675   6.857217
     9  H    1.092541   2.217150   4.569204   7.749341   6.763050
    10  Br   2.873727   1.998498   4.863457   6.016396   4.199332
                    6          7          8          9         10
     6  Sn   0.000000
     7  Sn   2.754355   0.000000
     8  F    3.422001   5.927219   0.000000
     9  H    4.254216   6.264760   2.083254   0.000000
    10  Br   3.598613   4.354718   4.231612   3.071608   0.000000
 Stoichiometry    C2H4BrFSn2
 Framework group  C1[X(C2H4BrFSn2)]
 Deg. of freedom    24
 Full point group                 C1      NOp   1
 Largest Abelian subgroup         C1      NOp   1
 Largest concise Abelian subgroup C1      NOp   1
                         Standard orientation:                         
 ---------------------------------------------------------------------
 Center     Atomic      Atomic             Coordinates (Angstroms)
 Number     Number       Type             X           Y           Z
 ---------------------------------------------------------------------
      1          6           0        2.982808   -0.721905    0.440904
      2          6           0        1.797405   -0.137358    0.097481
      3          1           0        0.030357   -2.597823    0.695774
      4          1           0       -3.753727   -0.399157   -0.227391
      5          1           0       -2.332513    1.888113   -0.697811
      6         50           0       -0.090961   -1.188461   -0.319271
      7         50           0       -2.270825    0.407478    0.217052
      8          9           0        3.071332   -2.133883    0.584151
      9          1           0        3.946022   -0.243809    0.634011
     10         35           0        1.825026    1.850353   -0.108037
 ---------------------------------------------------------------------
 Rotational constants (GHZ):      0.8589820      0.4011970      0.2821889
 Standard basis: SDD (6D, 10F)
 There are    65 symmetry adapted basis functions of A   symmetry.
 Integral buffers will be    131072 words long.
 Raffenetti 1 integral format.
 Two-electron integral symmetry is turned on.
    65 basis functions,   139 primitive gaussians,    65 cartesian basis functions
    20 alpha electrons       20 beta electrons
       nuclear repulsion energy       131.1750322154 Hartrees.
 NAtoms=   10 NActive=   10 NUniq=   10 SFac= 7.50D-01 NAtFMM=   80 NAOKFM=F Big=F
 One-electron integrals computed using PRISM.
   1 Symmetry operations used in ECPInt.
 ECPInt:  NShTT=     780 NPrTT=    3579 LenC2=     766 LenP2D=    2847.
 LDataN:  DoStor=T MaxTD1= 5 Len=  102
 NBasis=    65 RedAO= T  NBF=    65
 NBsUse=    65 1.00D-06 NBFU=    65
 Initial guess read from the read-write file.
 B after Tr=     0.000000    0.000000    0.000000
         Rot=    1.000000    0.000000    0.000000    0.000000 Ang=   0.00 deg.
 Initial guess orbital symmetries:
       Occupied  (A) (A) (A) (A) (A) (A) (A) (A) (A) (A) (A) (A)
                 (A) (A) (A) (A) (A) (A) (A) (A)
       Virtual   (A) (A) (A) (A) (A) (A) (A) (A) (A) (A) (A) (A)
                 (A) (A) (A) (A) (A) (A) (A) (A) (A) (A) (A) (A)
                 (A) (A) (A) (A) (A) (A) (A) (A) (A) (A) (A) (A)
                 (A) (A) (A) (A) (A) (A) (A) (A) (A)
 Harris functional with IExCor=  205 diagonalized for initial guess.
 ExpMin= 3.61D-02 ExpMax= 9.99D+03 ExpMxC= 1.51D+03 IAcc=3 IRadAn=         0 AccDes= 0.00D+00
 HarFok:  IExCor=  205 AccDes= 0.00D+00 IRadAn=         0 IDoV= 1
 ScaDFX=  1.000000  1.000000  1.000000  1.000000
 Defaulting to unpruned grid for atomic number  50.
 Defaulting to unpruned grid for atomic number  50.
 Defaulting to unpruned grid for atomic number  50.
 Defaulting to unpruned grid for atomic number  50.
 Defaulting to unpruned grid for atomic number  50.
 Defaulting to unpruned grid for atomic number  50.
 Defaulting to unpruned grid for atomic number  50.
 Defaulting to unpruned grid for atomic number  50.
 Defaulting to unpruned grid for atomic number  50.
 Defaulting to unpruned grid for atomic number  50.
 Defaulting to unpruned grid for atomic number  50.
 Defaulting to unpruned grid for atomic number  50.
 Defaulting to unpruned grid for atomic number  50.
 Defaulting to unpruned grid for atomic number  50.
 Defaulting to unpruned grid for atomic number  50.
 Defaulting to unpruned grid for atomic number  50.
 Defaulting to unpruned grid for atomic number  50.
 Defaulting to unpruned grid for atomic number  50.
 Defaulting to unpruned grid for atomic number  50.
 Defaulting to unpruned grid for atomic number  50.
 FoFCou: FMM=F IPFlag=           0 FMFlag=      100000 FMFlg1=           0
         NFxFlg=           0 DoJE=T BraDBF=F KetDBF=T FulRan=T
         Omega=  0.000000  0.000000  1.000000  0.000000  0.000000 ICntrl=     500 IOpCl=  0
         NMat0=    1 NMatS0=    1 NMatT0=    0 NMatD0=    1 NMtDS0=    0 NMtDT0=    0
         I1Cent=           4 NGrid=           0.
 Petite list used in FoFCou.
 Requested convergence on RMS density matrix=1.00D-08 within 128 cycles.
 Requested convergence on MAX density matrix=1.00D-06.
 Requested convergence on             energy=1.00D-06.
 No special actions if energy rises.
 Keep R1 ints in memory in canonical form, NReq=3134234.
 SCF Done:  E(RHF) =  -197.000136425     A.U. after   13 cycles
             Convg  =    0.3953D-08             -V/T =  2.0718
 ExpMin= 3.61D-02 ExpMax= 9.99D+03 ExpMxC= 1.51D+03 IAcc=3 IRadAn=         5 AccDes= 0.00D+00
 HarFok:  IExCor=  205 AccDes= 0.00D+00 IRadAn=         5 IDoV=-2
 ScaDFX=  1.000000  1.000000  1.000000  1.000000
 Defaulting to unpruned grid for atomic number  50.
 Defaulting to unpruned grid for atomic number  50.
 Defaulting to unpruned grid for atomic number  50.
 Defaulting to unpruned grid for atomic number  50.
 Defaulting to unpruned grid for atomic number  50.
 Defaulting to unpruned grid for atomic number  50.
 Defaulting to unpruned grid for atomic number  50.
 Defaulting to unpruned grid for atomic number  50.
 Defaulting to unpruned grid for atomic number  50.
 Defaulting to unpruned grid for atomic number  50.
 Defaulting to unpruned grid for atomic number  50.
 Defaulting to unpruned grid for atomic number  50.
 Defaulting to unpruned grid for atomic number  50.
 Defaulting to unpruned grid for atomic number  50.
 Defaulting to unpruned grid for atomic number  50.
 Defaulting to unpruned grid for atomic number  50.
 Defaulting to unpruned grid for atomic number  50.
 Defaulting to unpruned grid for atomic number  50.
 Defaulting to unpruned grid for atomic number  50.
 Defaulting to unpruned grid for atomic number  50.
 Range of M.O.s used for correlation:     4    65
 NBasis=    65 NAE=    20 NBE=    20 NFC=     3 NFV=     0
 NROrb=     62 NOA=    17 NOB=    17 NVA=    45 NVB=    45
 Fully direct method using O(ONN) memory.
 JobTyp=1 Pass  1:  I=   4 to  20 NPSUse= 20 ParTrn=T ParDer=T DoDerP=T.
 Spin components of T(2) and E(2):
     alpha-alpha T2 =       0.2158702336D-01 E2=     -0.4656156525D-01
     alpha-beta  T2 =       0.1654265890D+00 E2=     -0.3189074554D+00
     beta-beta   T2 =       0.2158702336D-01 E2=     -0.4656156525D-01
 ANorm=    0.1099363741D+01
 E2 =    -0.4120305859D+00 EUMP2 =    -0.19741216701075D+03
          IDoAtm=1111111111
          Differentiating once with respect to electric field.
                with respect to dipole field.
          Differentiating once with respect to nuclear coordinates.
          Keep R1 ints in memory in canonical form, NReq=3102463.
          There are     1 degrees of freedom in the 1st order CPHF.  IDoFFX=0.
 LinEq1:  Iter=  0 NonCon=     1 RMS=9.05D-03 Max=9.52D-02
 AX will form     1 AO Fock derivatives at one time.
 LinEq1:  Iter=  1 NonCon=     1 RMS=3.60D-03 Max=3.57D-02
 LinEq1:  Iter=  2 NonCon=     1 RMS=1.23D-03 Max=1.53D-02
 LinEq1:  Iter=  3 NonCon=     1 RMS=4.06D-04 Max=3.47D-03
 LinEq1:  Iter=  4 NonCon=     1 RMS=1.41D-04 Max=1.21D-03
 LinEq1:  Iter=  5 NonCon=     1 RMS=4.78D-05 Max=3.34D-04
 LinEq1:  Iter=  6 NonCon=     1 RMS=1.47D-05 Max=1.15D-04
 LinEq1:  Iter=  7 NonCon=     1 RMS=4.67D-06 Max=6.61D-05
 LinEq1:  Iter=  8 NonCon=     1 RMS=9.04D-07 Max=8.15D-06
 LinEq1:  Iter=  9 NonCon=     1 RMS=2.42D-07 Max=4.54D-06
 LinEq1:  Iter= 10 NonCon=     1 RMS=6.00D-08 Max=5.71D-07
 LinEq1:  Iter= 11 NonCon=     1 RMS=1.30D-08 Max=1.18D-07
 LinEq1:  Iter= 12 NonCon=     1 RMS=2.40D-09 Max=1.36D-08
 LinEq1:  Iter= 13 NonCon=     1 RMS=4.56D-10 Max=4.34D-09
 LinEq1:  Iter= 14 NonCon=     0 RMS=7.29D-11 Max=4.47D-10
 Linear equations converged to 1.000D-10 1.000D-09 after    14 iterations.
 End of Minotr Frequency-dependent properties file   721 does not exist.
 End of Minotr Frequency-dependent properties file   722 does not exist.
   1 Symmetry operations used in ECPInt.
 ECPInt:  NShTT=     780 NPrTT=    3579 LenC2=     766 LenP2D=    2847.
 LDataN:  DoStor=T MaxTD1= 6 Len=  172
 Calling FoFJK, ICntrl=      2127 FMM=F ISym2X=0 I1Cent= 0 IOpClX= 0 NMat=1 NMatS=1 NMatT=0.
 ***** Axes restored to original set *****
 -------------------------------------------------------------------
 Center     Atomic                   Forces (Hartrees/Bohr)
 Number     Number              X              Y              Z
 -------------------------------------------------------------------
      1        6           0.008864690   -0.007616827   -0.000183174
      2        6          -0.002241323    0.000257469    0.000365895
      3        1           0.000063901   -0.000383564    0.000560077
      4        1           0.000279381    0.000699721   -0.000402734
      5        1           0.000188846    0.000834336   -0.000333842
      6       50           0.000208294    0.000224939   -0.001377428
      7       50          -0.000306586   -0.000529985    0.001184125
      8        9          -0.005848801    0.003739793    0.000390830
      9        1          -0.000496617    0.000587439   -0.000090392
     10       35          -0.000711784    0.002186679   -0.000113357
 -------------------------------------------------------------------
 Cartesian Forces:  Max     0.008864690 RMS     0.002594292

 GradGradGradGradGradGradGradGradGradGradGradGradGradGradGradGradGradGrad
 Berny optimization.
 Using GEDIIS/GDIIS optimizer.
 Internal  Forces:  Max     0.006711312 RMS     0.001677374
 Search for a local minimum.
 Step number   2 out of a maximum of   43
 All quantities printed in internal units (Hartrees-Bohrs-Radians)
 Mixed Optimization -- RFO/linear search
 Update second derivatives using D2CorX and points    1    2
 DE= -4.38D-03 DEPred=-4.56D-03 R= 9.61D-01
 SS=  1.41D+00  RLast= 1.75D-01 DXNew= 5.0454D-01 5.2649D-01
 Trust test= 9.61D-01 RLast= 1.75D-01 DXMaxT set to 5.05D-01
 Use linear search instead of GDIIS.
     Eigenvalues ---    0.00230   0.00230   0.01642   0.03085   0.03086
     Eigenvalues ---    0.03434   0.04649   0.06959   0.11399   0.11774
     Eigenvalues ---    0.12056   0.12181   0.12361   0.15683   0.15916
     Eigenvalues ---    0.16000   0.16080   0.22251   0.23470   0.24916
     Eigenvalues ---    0.25194   0.37415   0.43837   0.647021000.00000
     Eigenvalues --- 1000.000001000.000001000.000001000.000001000.00000
     Eigenvalues --- 1000.000001000.000001000.00000
 RFO step:  Lambda=-3.60261194D-04 EMin= 2.29994085D-03
 Quartic linear search produced a step of  0.02370.
 Iteration  1 RMS(Cart)=  0.02111957 RMS(Int)=  0.00014946
 Iteration  2 RMS(Cart)=  0.00021945 RMS(Int)=  0.00001453
 Iteration  3 RMS(Cart)=  0.00000002 RMS(Int)=  0.00001453
 Variable       Old X    -DE/DX   Delta X   Delta X   Delta X     New X
                                 (Linear)    (Quad)   (Total)
    R1        2.58058  -0.00241   0.00183  -0.00283  -0.00100   2.57958
    R2        2.68716   0.00671   0.00171   0.01534   0.01705   2.70421
    R3        2.06460  -0.00024   0.00101   0.00004   0.00105   2.06566
    R4        4.15930  -0.00073   0.00057  -0.00609  -0.00552   4.15377
    R5        3.77661  -0.00202   0.00138  -0.01241  -0.01103   3.76559
    R6        3.29015  -0.00057   0.00086  -0.00410  -0.00324   3.28691
    R7        3.29874  -0.00057   0.00074  -0.00428  -0.00354   3.29521
    R8        3.29109  -0.00060   0.00076  -0.00444  -0.00368   3.28740
    R9        5.20498  -0.00111  -0.00184  -0.01766  -0.01950   5.18548
    A1        2.09950  -0.00376   0.00025  -0.01727  -0.01703   2.08248
    A2        2.24265   0.00263  -0.00019   0.01341   0.01321   2.25586
    A3        1.94103   0.00112  -0.00005   0.00386   0.00381   1.94484
    A4        2.19932   0.00014  -0.00025   0.00034   0.00009   2.19941
    A5        2.02596  -0.00217   0.00025  -0.00875  -0.00850   2.01746
    A6        2.05710   0.00203   0.00002   0.00830   0.00832   2.06542
    A7        1.78892   0.00045   0.00062   0.00898   0.00956   1.79848
    A8        1.94489  -0.00025  -0.00005   0.00117   0.00109   1.94598
    A9        1.99397   0.00020   0.00005   0.00626   0.00626   2.00023
   A10        1.80187   0.00124   0.00056   0.01268   0.01324   1.81511
   A11        1.93370  -0.00057  -0.00007  -0.00129  -0.00136   1.93235
   A12        2.00243  -0.00097  -0.00019  -0.00415  -0.00434   1.99809
    D1       -0.02176   0.00011   0.00024   0.00248   0.00272  -0.01904
    D2       -3.11922   0.00012  -0.00010   0.00524   0.00513  -3.11409
    D3        3.11527   0.00006   0.00034   0.00108   0.00143   3.11670
    D4        0.01781   0.00007   0.00001   0.00384   0.00384   0.02165
    D5        0.53137  -0.00010  -0.00016   0.01205   0.01188   0.54325
    D6        2.67129   0.00029   0.00024   0.02557   0.02583   2.69711
    D7       -2.65507  -0.00021   0.00019   0.00886   0.00903  -2.64604
    D8       -0.51515   0.00019   0.00059   0.02238   0.02298  -0.49217
    D9        3.07011   0.00003  -0.00012   0.00648   0.00635   3.07647
   D10        1.03857  -0.00053  -0.00067  -0.00612  -0.00680   1.03177
   D11       -1.19581   0.00057   0.00066   0.02282   0.02349  -1.17232
   D12        3.05584   0.00002   0.00011   0.01021   0.01033   3.06617
         Item               Value     Threshold  Converged?
 Maximum Force            0.006711     0.000450     NO 
 RMS     Force            0.001677     0.000300     NO 
 Maximum Displacement     0.053132     0.001800     NO 
 RMS     Displacement     0.021155     0.001200     NO 
 Predicted change in Energy=-1.811824D-04
 GradGradGradGradGradGradGradGradGradGradGradGradGradGradGradGradGradGrad

                          Input orientation:                          
 ---------------------------------------------------------------------
 Center     Atomic      Atomic             Coordinates (Angstroms)
 Number     Number       Type             X           Y           Z
 ---------------------------------------------------------------------
      1          6           0        2.308907    2.960188   -0.073333
      2          6           0        1.908772    1.663261    0.072425
      3          1           0       -1.100210    2.163775   -0.455228
      4          1           0       -2.114396   -2.161938   -0.128730
      5          1           0        0.530582   -2.770560    0.281287
      6         50           0       -0.154244    0.975261    0.392092
      7         50           0       -0.502734   -1.600734   -0.486853
      8          9           0        1.329510    4.003120   -0.044183
      9          1           0        3.315954    3.361770   -0.212809
     10         35           0        3.367838    0.306149    0.063606
 ---------------------------------------------------------------------
                    Distance matrix (angstroms):
                    1          2          3          4          5
     1  C    0.000000
     2  C    1.365054   0.000000
     3  H    3.521675   3.095627   0.000000
     4  H    6.767928   5.555042   4.454993   0.000000
     5  H    6.010796   4.647774   5.248772   2.744895   0.000000
     6  Sn   3.197447   2.198082   1.739359   3.735702   3.809519
     7  Sn   5.373856   4.096561   3.811759   1.743748   1.739619
     8  F    1.431004   2.413313   3.075010   7.062264   6.828394
     9  H    1.093099   2.224061   4.582190   7.746426   6.753362
    10  Br   2.860772   1.992663   4.866562   6.015259   4.190888
                    6          7          8          9         10
     6  Sn   0.000000
     7  Sn   2.744036   0.000000
     8  F    3.399970   5.912381   0.000000
     9  H    4.254833   6.267688   2.094212   0.000000
    10  Br   3.600094   4.349774   4.223032   3.068536   0.000000
 Stoichiometry    C2H4BrFSn2
 Framework group  C1[X(C2H4BrFSn2)]
 Deg. of freedom    24
 Full point group                 C1      NOp   1
 Largest Abelian subgroup         C1      NOp   1
 Largest concise Abelian subgroup C1      NOp   1
                         Standard orientation:                         
 ---------------------------------------------------------------------
 Center     Atomic      Atomic             Coordinates (Angstroms)
 Number     Number       Type             X           Y           Z
 ---------------------------------------------------------------------
      1          6           0        2.983192   -0.720011    0.418483
      2          6           0        1.792365   -0.136850    0.094096
      3          1           0        0.017872   -2.596904    0.712330
      4          1           0       -3.747678   -0.403948   -0.214245
      5          1           0       -2.313723    1.879468   -0.728284
      6         50           0       -0.096435   -1.188876   -0.302441
      7         50           0       -2.265588    0.412937    0.206192
      8          9           0        3.054696   -2.143589    0.545316
      9          1           0        3.953835   -0.253161    0.604949
     10         35           0        1.829864    1.845856   -0.101303
 ---------------------------------------------------------------------
 Rotational constants (GHZ):      0.8631777      0.4032497      0.2827324
 Standard basis: SDD (6D, 10F)
 There are    65 symmetry adapted basis functions of A   symmetry.
 Integral buffers will be    131072 words long.
 Raffenetti 1 integral format.
 Two-electron integral symmetry is turned on.
    65 basis functions,   139 primitive gaussians,    65 cartesian basis functions
    20 alpha electrons       20 beta electrons
       nuclear repulsion energy       131.2380792886 Hartrees.
 NAtoms=   10 NActive=   10 NUniq=   10 SFac= 7.50D-01 NAtFMM=   80 NAOKFM=F Big=F
 One-electron integrals computed using PRISM.
   1 Symmetry operations used in ECPInt.
 ECPInt:  NShTT=     780 NPrTT=    3579 LenC2=     766 LenP2D=    2849.
 LDataN:  DoStor=T MaxTD1= 5 Len=  102
 NBasis=    65 RedAO= T  NBF=    65
 NBsUse=    65 1.00D-06 NBFU=    65
 Initial guess read from the read-write file.
 B after Tr=     0.000000    0.000000    0.000000
         Rot=    1.000000    0.000000    0.000000    0.000000 Ang=   0.00 deg.
 Initial guess orbital symmetries:
       Occupied  (A) (A) (A) (A) (A) (A) (A) (A) (A) (A) (A) (A)
                 (A) (A) (A) (A) (A) (A) (A) (A)
       Virtual   (A) (A) (A) (A) (A) (A) (A) (A) (A) (A) (A) (A)
                 (A) (A) (A) (A) (A) (A) (A) (A) (A) (A) (A) (A)
                 (A) (A) (A) (A) (A) (A) (A) (A) (A) (A) (A) (A)
                 (A) (A) (A) (A) (A) (A) (A) (A) (A)
 Harris functional with IExCor=  205 diagonalized for initial guess.
 ExpMin= 3.61D-02 ExpMax= 9.99D+03 ExpMxC= 1.51D+03 IAcc=3 IRadAn=         0 AccDes= 0.00D+00
 HarFok:  IExCor=  205 AccDes= 0.00D+00 IRadAn=         0 IDoV= 1
 ScaDFX=  1.000000  1.000000  1.000000  1.000000
 Defaulting to unpruned grid for atomic number  50.
 Defaulting to unpruned grid for atomic number  50.
 Defaulting to unpruned grid for atomic number  50.
 Defaulting to unpruned grid for atomic number  50.
 Defaulting to unpruned grid for atomic number  50.
 Defaulting to unpruned grid for atomic number  50.
 Defaulting to unpruned grid for atomic number  50.
 Defaulting to unpruned grid for atomic number  50.
 Defaulting to unpruned grid for atomic number  50.
 Defaulting to unpruned grid for atomic number  50.
 Defaulting to unpruned grid for atomic number  50.
 Defaulting to unpruned grid for atomic number  50.
 Defaulting to unpruned grid for atomic number  50.
 Defaulting to unpruned grid for atomic number  50.
 Defaulting to unpruned grid for atomic number  50.
 Defaulting to unpruned grid for atomic number  50.
 Defaulting to unpruned grid for atomic number  50.
 Defaulting to unpruned grid for atomic number  50.
 Defaulting to unpruned grid for atomic number  50.
 Defaulting to unpruned grid for atomic number  50.
 FoFCou: FMM=F IPFlag=           0 FMFlag=      100000 FMFlg1=           0
         NFxFlg=           0 DoJE=T BraDBF=F KetDBF=T FulRan=T
         Omega=  0.000000  0.000000  1.000000  0.000000  0.000000 ICntrl=     500 IOpCl=  0
         NMat0=    1 NMatS0=    1 NMatT0=    0 NMatD0=    1 NMtDS0=    0 NMtDT0=    0
         I1Cent=           4 NGrid=           0.
 Petite list used in FoFCou.
 Requested convergence on RMS density matrix=1.00D-08 within 128 cycles.
 Requested convergence on MAX density matrix=1.00D-06.
 Requested convergence on             energy=1.00D-06.
 No special actions if energy rises.
 Keep R1 ints in memory in canonical form, NReq=3134234.
 SCF Done:  E(RHF) =  -196.999858037     A.U. after   12 cycles
             Convg  =    0.3924D-08             -V/T =  2.0718
 ExpMin= 3.61D-02 ExpMax= 9.99D+03 ExpMxC= 1.51D+03 IAcc=3 IRadAn=         5 AccDes= 0.00D+00
 HarFok:  IExCor=  205 AccDes= 0.00D+00 IRadAn=         5 IDoV=-2
 ScaDFX=  1.000000  1.000000  1.000000  1.000000
 Defaulting to unpruned grid for atomic number  50.
 Defaulting to unpruned grid for atomic number  50.
 Defaulting to unpruned grid for atomic number  50.
 Defaulting to unpruned grid for atomic number  50.
 Defaulting to unpruned grid for atomic number  50.
 Defaulting to unpruned grid for atomic number  50.
 Defaulting to unpruned grid for atomic number  50.
 Defaulting to unpruned grid for atomic number  50.
 Defaulting to unpruned grid for atomic number  50.
 Defaulting to unpruned grid for atomic number  50.
 Defaulting to unpruned grid for atomic number  50.
 Defaulting to unpruned grid for atomic number  50.
 Defaulting to unpruned grid for atomic number  50.
 Defaulting to unpruned grid for atomic number  50.
 Defaulting to unpruned grid for atomic number  50.
 Defaulting to unpruned grid for atomic number  50.
 Defaulting to unpruned grid for atomic number  50.
 Defaulting to unpruned grid for atomic number  50.
 Defaulting to unpruned grid for atomic number  50.
 Defaulting to unpruned grid for atomic number  50.
 Range of M.O.s used for correlation:     4    65
 NBasis=    65 NAE=    20 NBE=    20 NFC=     3 NFV=     0
 NROrb=     62 NOA=    17 NOB=    17 NVA=    45 NVB=    45
 Fully direct method using O(ONN) memory.
 JobTyp=1 Pass  1:  I=   4 to  20 NPSUse= 20 ParTrn=T ParDer=T DoDerP=T.
 Spin components of T(2) and E(2):
     alpha-alpha T2 =       0.2162691685D-01 E2=     -0.4663885764D-01
     alpha-beta  T2 =       0.1657005847D+00 E2=     -0.3192730164D+00
     beta-beta   T2 =       0.2162691685D-01 E2=     -0.4663885764D-01
 ANorm=    0.1099524633D+01
 E2 =    -0.4125507317D+00 EUMP2 =    -0.19741240876869D+03
          IDoAtm=1111111111
          Differentiating once with respect to electric field.
                with respect to dipole field.
          Differentiating once with respect to nuclear coordinates.
          Keep R1 ints in memory in canonical form, NReq=3102463.
          There are     1 degrees of freedom in the 1st order CPHF.  IDoFFX=0.
 LinEq1:  Iter=  0 NonCon=     1 RMS=9.03D-03 Max=9.41D-02
 AX will form     1 AO Fock derivatives at one time.
 LinEq1:  Iter=  1 NonCon=     1 RMS=3.60D-03 Max=3.57D-02
 LinEq1:  Iter=  2 NonCon=     1 RMS=1.22D-03 Max=1.54D-02
 LinEq1:  Iter=  3 NonCon=     1 RMS=3.99D-04 Max=3.34D-03
 LinEq1:  Iter=  4 NonCon=     1 RMS=1.39D-04 Max=1.20D-03
 LinEq1:  Iter=  5 NonCon=     1 RMS=4.76D-05 Max=3.32D-04
 LinEq1:  Iter=  6 NonCon=     1 RMS=1.48D-05 Max=1.13D-04
 LinEq1:  Iter=  7 NonCon=     1 RMS=4.66D-06 Max=6.51D-05
 LinEq1:  Iter=  8 NonCon=     1 RMS=9.07D-07 Max=7.98D-06
 LinEq1:  Iter=  9 NonCon=     1 RMS=2.49D-07 Max=4.64D-06
 LinEq1:  Iter= 10 NonCon=     1 RMS=6.09D-08 Max=5.45D-07
 LinEq1:  Iter= 11 NonCon=     1 RMS=1.30D-08 Max=1.15D-07
 LinEq1:  Iter= 12 NonCon=     1 RMS=2.41D-09 Max=1.35D-08
 LinEq1:  Iter= 13 NonCon=     1 RMS=4.52D-10 Max=4.32D-09
 LinEq1:  Iter= 14 NonCon=     0 RMS=7.25D-11 Max=4.36D-10
 Linear equations converged to 1.000D-10 1.000D-09 after    14 iterations.
 End of Minotr Frequency-dependent properties file   721 does not exist.
 End of Minotr Frequency-dependent properties file   722 does not exist.
   1 Symmetry operations used in ECPInt.
 ECPInt:  NShTT=     780 NPrTT=    3579 LenC2=     766 LenP2D=    2849.
 LDataN:  DoStor=T MaxTD1= 6 Len=  172
 Calling FoFJK, ICntrl=      2127 FMM=F ISym2X=0 I1Cent= 0 IOpClX= 0 NMat=1 NMatS=1 NMatT=0.
 ***** Axes restored to original set *****
 -------------------------------------------------------------------
 Center     Atomic                   Forces (Hartrees/Bohr)
 Number     Number              X              Y              Z
 -------------------------------------------------------------------
      1        6           0.003377331   -0.003993966    0.000092491
      2        6          -0.000717548    0.001140268    0.000092577
      3        1           0.000191000   -0.000264276    0.000318862
      4        1           0.000212485    0.000341445   -0.000127052
      5        1           0.000052205    0.000448802   -0.000196932
      6       50          -0.000075698    0.000758230   -0.000631776
      7       50          -0.000225009   -0.000722497    0.000422223
      8        9          -0.001910150    0.001682875    0.000070395
      9        1          -0.001211840    0.000454518    0.000049274
     10       35           0.000307224    0.000154602   -0.000090063
 -------------------------------------------------------------------
 Cartesian Forces:  Max     0.003993966 RMS     0.001152382

 GradGradGradGradGradGradGradGradGradGradGradGradGradGradGradGradGradGrad
 Berny optimization.
 Using GEDIIS/GDIIS optimizer.
 Internal  Forces:  Max     0.002535261 RMS     0.000707972
 Search for a local minimum.
 Step number   3 out of a maximum of   43
 All quantities printed in internal units (Hartrees-Bohrs-Radians)
 Mixed Optimization -- En-DIIS/RFO-DIIS
 Update second derivatives using D2CorX and points    1    2    3
 DE= -2.42D-04 DEPred=-1.81D-04 R= 1.33D+00
 SS=  1.41D+00  RLast= 6.34D-02 DXNew= 8.4853D-01 1.9027D-01
 Trust test= 1.33D+00 RLast= 6.34D-02 DXMaxT set to 5.05D-01
 Use linear search instead of GDIIS.
     Eigenvalues ---    0.00222   0.00234   0.01632   0.03050   0.03091
     Eigenvalues ---    0.03126   0.04562   0.06887   0.11254   0.11812
     Eigenvalues ---    0.12028   0.12134   0.12217   0.13763   0.15942
     Eigenvalues ---    0.16000   0.16385   0.20915   0.23417   0.24338
     Eigenvalues ---    0.26261   0.37737   0.40539   0.641631000.00000
     Eigenvalues --- 1000.000001000.000001000.000001000.000001000.00000
     Eigenvalues --- 1000.000001000.000001000.00000
 RFO step:  Lambda=-7.12767388D-05 EMin= 2.21663302D-03
 Quartic linear search produced a step of  0.50475.
 Iteration  1 RMS(Cart)=  0.04375456 RMS(Int)=  0.00045434
 Iteration  2 RMS(Cart)=  0.00092742 RMS(Int)=  0.00002108
 Iteration  3 RMS(Cart)=  0.00000027 RMS(Int)=  0.00002108
 Variable       Old X    -DE/DX   Delta X   Delta X   Delta X     New X
                                 (Linear)    (Quad)   (Total)
    R1        2.57958  -0.00171  -0.00050  -0.00206  -0.00257   2.57701
    R2        2.70421   0.00254   0.00860   0.00432   0.01293   2.71713
    R3        2.06566  -0.00096   0.00053  -0.00313  -0.00260   2.06306
    R4        4.15377  -0.00035  -0.00279  -0.00232  -0.00511   4.14866
    R5        3.76559   0.00012  -0.00557   0.00602   0.00045   3.76604
    R6        3.28691  -0.00044  -0.00164  -0.00345  -0.00509   3.28183
    R7        3.29521  -0.00033  -0.00179  -0.00224  -0.00402   3.29118
    R8        3.28740  -0.00036  -0.00186  -0.00245  -0.00431   3.28310
    R9        5.18548  -0.00010  -0.00984   0.00170  -0.00814   5.17734
    A1        2.08248  -0.00104  -0.00860  -0.00155  -0.01015   2.07233
    A2        2.25586   0.00142   0.00667   0.00769   0.01436   2.27021
    A3        1.94484  -0.00038   0.00192  -0.00612  -0.00420   1.94064
    A4        2.19941  -0.00070   0.00004  -0.00449  -0.00444   2.19497
    A5        2.01746  -0.00027  -0.00429   0.00123  -0.00306   2.01440
    A6        2.06542   0.00098   0.00420   0.00333   0.00753   2.07295
    A7        1.79848   0.00012   0.00482   0.00315   0.00790   1.80638
    A8        1.94598  -0.00003   0.00055   0.00120   0.00171   1.94769
    A9        2.00023   0.00017   0.00316   0.00396   0.00705   2.00728
   A10        1.81511   0.00057   0.00668   0.00382   0.01051   1.82561
   A11        1.93235  -0.00035  -0.00068  -0.00187  -0.00256   1.92979
   A12        1.99809  -0.00049  -0.00219  -0.00245  -0.00463   1.99346
    D1       -0.01904  -0.00001   0.00137  -0.00091   0.00047  -0.01857
    D2       -3.11409  -0.00003   0.00259  -0.00294  -0.00036  -3.11445
    D3        3.11670   0.00005   0.00072   0.00220   0.00292   3.11963
    D4        0.02165   0.00002   0.00194   0.00016   0.00210   0.02375
    D5        0.54325  -0.00006   0.00600   0.03375   0.03973   0.58298
    D6        2.69711   0.00020   0.01304   0.04113   0.05418   2.75129
    D7       -2.64604  -0.00007   0.00456   0.03578   0.04031  -2.60572
    D8       -0.49217   0.00019   0.01160   0.04315   0.05476  -0.43741
    D9        3.07647  -0.00010   0.00321  -0.03986  -0.03667   3.03979
   D10        1.03177  -0.00026  -0.00343  -0.04182  -0.04527   0.98651
   D11       -1.17232   0.00015   0.01185  -0.03230  -0.02043  -1.19275
   D12        3.06617  -0.00001   0.00522  -0.03426  -0.02902   3.03715
         Item               Value     Threshold  Converged?
 Maximum Force            0.002535     0.000450     NO 
 RMS     Force            0.000708     0.000300     NO 
 Maximum Displacement     0.121694     0.001800     NO 
 RMS     Displacement     0.043752     0.001200     NO 
 Predicted change in Energy=-6.591089D-05
 GradGradGradGradGradGradGradGradGradGradGradGradGradGradGradGradGradGrad

                          Input orientation:                          
 ---------------------------------------------------------------------
 Center     Atomic      Atomic             Coordinates (Angstroms)
 Number     Number       Type             X           Y           Z
 ---------------------------------------------------------------------
      1          6           0        2.314842    2.952904   -0.051205
      2          6           0        1.905167    1.656617    0.055919
      3          1           0       -1.099456    2.163095   -0.519625
      4          1           0       -2.112246   -2.163306   -0.081907
      5          1           0        0.552115   -2.744866    0.292226
      6         50           0       -0.164382    0.985115    0.348717
      7         50           0       -0.510317   -1.604666   -0.475586
      8          9           0        1.327859    3.996866    0.007154
      9          1           0        3.317877    3.364776   -0.178250
     10         35           0        3.358521    0.293757    0.010831
 ---------------------------------------------------------------------
                    Distance matrix (angstroms):
                    1          2          3          4          5
     1  C    0.000000
     2  C    1.363696   0.000000
     3  H    3.535626   3.100892   0.000000
     4  H    6.765770   5.545305   4.464872   0.000000
     5  H    5.974088   4.610818   5.241648   2.752636   0.000000
     6  Sn   3.190405   2.195377   1.736668   3.727219   3.798595
     7  Sn   5.378947   4.093046   3.813797   1.741619   1.737341
     8  F    1.437845   2.410897   3.087406   7.056201   6.792201
     9  H    1.091722   2.228989   4.590578   7.749529   6.722984
    10  Br   2.857303   1.992903   4.863062   5.997920   4.145881
                    6          7          8          9         10
     6  Sn   0.000000
     7  Sn   2.739729   0.000000
     8  F    3.378475   5.915158   0.000000
     9  H    4.250483   6.280034   2.096207   0.000000
    10  Br   3.605966   4.336879   4.223342   3.077103   0.000000
 Stoichiometry    C2H4BrFSn2
 Framework group  C1[X(C2H4BrFSn2)]
 Deg. of freedom    24
 Full point group                 C1      NOp   1
 Largest Abelian subgroup         C1      NOp   1
 Largest concise Abelian subgroup C1      NOp   1
                         Standard orientation:                         
 ---------------------------------------------------------------------
 Center     Atomic      Atomic             Coordinates (Angstroms)
 Number     Number       Type             X           Y           Z
 ---------------------------------------------------------------------
      1          6           0        2.994214   -0.707954    0.366796
      2          6           0        1.792001   -0.129972    0.083441
      3          1           0        0.023992   -2.582415    0.772787
      4          1           0       -3.735890   -0.406183   -0.257936
      5          1           0       -2.275450    1.873920   -0.753162
      6         50           0       -0.093686   -1.197637   -0.268634
      7         50           0       -2.263725    0.411982    0.185429
      8          9           0        3.064796   -2.140146    0.472822
      9          1           0        3.971408   -0.251159    0.534980
     10         35           0        1.816743    1.855356   -0.088378
 ---------------------------------------------------------------------
 Rotational constants (GHZ):      0.8642165      0.4059307      0.2824965
 Standard basis: SDD (6D, 10F)
 There are    65 symmetry adapted basis functions of A   symmetry.
 Integral buffers will be    131072 words long.
 Raffenetti 1 integral format.
 Two-electron integral symmetry is turned on.
    65 basis functions,   139 primitive gaussians,    65 cartesian basis functions
    20 alpha electrons       20 beta electrons
       nuclear repulsion energy       131.2514845663 Hartrees.
 NAtoms=   10 NActive=   10 NUniq=   10 SFac= 7.50D-01 NAtFMM=   80 NAOKFM=F Big=F
 One-electron integrals computed using PRISM.
   1 Symmetry operations used in ECPInt.
 ECPInt:  NShTT=     780 NPrTT=    3579 LenC2=     766 LenP2D=    2853.
 LDataN:  DoStor=T MaxTD1= 5 Len=  102
 NBasis=    65 RedAO= T  NBF=    65
 NBsUse=    65 1.00D-06 NBFU=    65
 Initial guess read from the read-write file.
 B after Tr=     0.000000    0.000000    0.000000
         Rot=    1.000000    0.000000    0.000000    0.000000 Ang=   0.00 deg.
 Initial guess orbital symmetries:
       Occupied  (A) (A) (A) (A) (A) (A) (A) (A) (A) (A) (A) (A)
                 (A) (A) (A) (A) (A) (A) (A) (A)
       Virtual   (A) (A) (A) (A) (A) (A) (A) (A) (A) (A) (A) (A)
                 (A) (A) (A) (A) (A) (A) (A) (A) (A) (A) (A) (A)
                 (A) (A) (A) (A) (A) (A) (A) (A) (A) (A) (A) (A)
                 (A) (A) (A) (A) (A) (A) (A) (A) (A)
 Harris functional with IExCor=  205 diagonalized for initial guess.
 ExpMin= 3.61D-02 ExpMax= 9.99D+03 ExpMxC= 1.51D+03 IAcc=3 IRadAn=         0 AccDes= 0.00D+00
 HarFok:  IExCor=  205 AccDes= 0.00D+00 IRadAn=         0 IDoV= 1
 ScaDFX=  1.000000  1.000000  1.000000  1.000000
 Defaulting to unpruned grid for atomic number  50.
 Defaulting to unpruned grid for atomic number  50.
 Defaulting to unpruned grid for atomic number  50.
 Defaulting to unpruned grid for atomic number  50.
 Defaulting to unpruned grid for atomic number  50.
 Defaulting to unpruned grid for atomic number  50.
 Defaulting to unpruned grid for atomic number  50.
 Defaulting to unpruned grid for atomic number  50.
 Defaulting to unpruned grid for atomic number  50.
 Defaulting to unpruned grid for atomic number  50.
 Defaulting to unpruned grid for atomic number  50.
 Defaulting to unpruned grid for atomic number  50.
 Defaulting to unpruned grid for atomic number  50.
 Defaulting to unpruned grid for atomic number  50.
 Defaulting to unpruned grid for atomic number  50.
 Defaulting to unpruned grid for atomic number  50.
 Defaulting to unpruned grid for atomic number  50.
 Defaulting to unpruned grid for atomic number  50.
 Defaulting to unpruned grid for atomic number  50.
 Defaulting to unpruned grid for atomic number  50.
 FoFCou: FMM=F IPFlag=           0 FMFlag=      100000 FMFlg1=           0
         NFxFlg=           0 DoJE=T BraDBF=F KetDBF=T FulRan=T
         Omega=  0.000000  0.000000  1.000000  0.000000  0.000000 ICntrl=     500 IOpCl=  0
         NMat0=    1 NMatS0=    1 NMatT0=    0 NMatD0=    1 NMtDS0=    0 NMtDT0=    0
         I1Cent=           4 NGrid=           0.
 Petite list used in FoFCou.
 Requested convergence on RMS density matrix=1.00D-08 within 128 cycles.
 Requested convergence on MAX density matrix=1.00D-06.
 Requested convergence on             energy=1.00D-06.
 No special actions if energy rises.
 Keep R1 ints in memory in canonical form, NReq=3134234.
 SCF Done:  E(RHF) =  -196.999599394     A.U. after   12 cycles
             Convg  =    0.6186D-08             -V/T =  2.0718
 ExpMin= 3.61D-02 ExpMax= 9.99D+03 ExpMxC= 1.51D+03 IAcc=3 IRadAn=         5 AccDes= 0.00D+00
 HarFok:  IExCor=  205 AccDes= 0.00D+00 IRadAn=         5 IDoV=-2
 ScaDFX=  1.000000  1.000000  1.000000  1.000000
 Defaulting to unpruned grid for atomic number  50.
 Defaulting to unpruned grid for atomic number  50.
 Defaulting to unpruned grid for atomic number  50.
 Defaulting to unpruned grid for atomic number  50.
 Defaulting to unpruned grid for atomic number  50.
 Defaulting to unpruned grid for atomic number  50.
 Defaulting to unpruned grid for atomic number  50.
 Defaulting to unpruned grid for atomic number  50.
 Defaulting to unpruned grid for atomic number  50.
 Defaulting to unpruned grid for atomic number  50.
 Defaulting to unpruned grid for atomic number  50.
 Defaulting to unpruned grid for atomic number  50.
 Defaulting to unpruned grid for atomic number  50.
 Defaulting to unpruned grid for atomic number  50.
 Defaulting to unpruned grid for atomic number  50.
 Defaulting to unpruned grid for atomic number  50.
 Defaulting to unpruned grid for atomic number  50.
 Defaulting to unpruned grid for atomic number  50.
 Defaulting to unpruned grid for atomic number  50.
 Defaulting to unpruned grid for atomic number  50.
 Range of M.O.s used for correlation:     4    65
 NBasis=    65 NAE=    20 NBE=    20 NFC=     3 NFV=     0
 NROrb=     62 NOA=    17 NOB=    17 NVA=    45 NVB=    45
 Fully direct method using O(ONN) memory.
 JobTyp=1 Pass  1:  I=   4 to  20 NPSUse= 20 ParTrn=T ParDer=T DoDerP=T.
 Spin components of T(2) and E(2):
     alpha-alpha T2 =       0.2166056271D-01 E2=     -0.4668855622D-01
     alpha-beta  T2 =       0.1659036639D+00 E2=     -0.3194908361D+00
     beta-beta   T2 =       0.2166056271D-01 E2=     -0.4668855622D-01
 ANorm=    0.1099647575D+01
 E2 =    -0.4128679485D+00 EUMP2 =    -0.19741246734272D+03
          IDoAtm=1111111111
          Differentiating once with respect to electric field.
                with respect to dipole field.
          Differentiating once with respect to nuclear coordinates.
          Keep R1 ints in memory in canonical form, NReq=3102463.
          There are     1 degrees of freedom in the 1st order CPHF.  IDoFFX=0.
 LinEq1:  Iter=  0 NonCon=     1 RMS=9.03D-03 Max=9.36D-02
 AX will form     1 AO Fock derivatives at one time.
 LinEq1:  Iter=  1 NonCon=     1 RMS=3.61D-03 Max=3.56D-02
 LinEq1:  Iter=  2 NonCon=     1 RMS=1.22D-03 Max=1.54D-02
 LinEq1:  Iter=  3 NonCon=     1 RMS=3.95D-04 Max=3.24D-03
 LinEq1:  Iter=  4 NonCon=     1 RMS=1.38D-04 Max=1.21D-03
 LinEq1:  Iter=  5 NonCon=     1 RMS=4.75D-05 Max=3.35D-04
 LinEq1:  Iter=  6 NonCon=     1 RMS=1.48D-05 Max=1.13D-04
 LinEq1:  Iter=  7 NonCon=     1 RMS=4.67D-06 Max=6.51D-05
 LinEq1:  Iter=  8 NonCon=     1 RMS=9.16D-07 Max=7.94D-06
 LinEq1:  Iter=  9 NonCon=     1 RMS=2.56D-07 Max=4.70D-06
 LinEq1:  Iter= 10 NonCon=     1 RMS=6.17D-08 Max=5.05D-07
 LinEq1:  Iter= 11 NonCon=     1 RMS=1.29D-08 Max=1.11D-07
 LinEq1:  Iter= 12 NonCon=     1 RMS=2.40D-09 Max=1.38D-08
 LinEq1:  Iter= 13 NonCon=     1 RMS=4.45D-10 Max=4.27D-09
 LinEq1:  Iter= 14 NonCon=     0 RMS=7.17D-11 Max=4.40D-10
 Linear equations converged to 1.000D-10 1.000D-09 after    14 iterations.
 End of Minotr Frequency-dependent properties file   721 does not exist.
 End of Minotr Frequency-dependent properties file   722 does not exist.
   1 Symmetry operations used in ECPInt.
 ECPInt:  NShTT=     780 NPrTT=    3579 LenC2=     766 LenP2D=    2853.
 LDataN:  DoStor=T MaxTD1= 6 Len=  172
 Calling FoFJK, ICntrl=      2127 FMM=F ISym2X=0 I1Cent= 0 IOpClX= 0 NMat=1 NMatS=1 NMatT=0.
 ***** Axes restored to original set *****
 -------------------------------------------------------------------
 Center     Atomic                   Forces (Hartrees/Bohr)
 Number     Number              X              Y              Z
 -------------------------------------------------------------------
      1        6          -0.000357470   -0.000778842    0.000066596
      2        6           0.000723007    0.000500980   -0.000454029
      3        1           0.000064521    0.000090171    0.000115170
      4        1          -0.000010785    0.000010178   -0.000134991
      5        1           0.000006770    0.000000232    0.000226462
      6       50          -0.000273934    0.000221197    0.000219118
      7       50          -0.000047339   -0.000211419   -0.000155428
      8        9           0.000148195    0.000047566   -0.000006407
      9        1          -0.000342159    0.000214592    0.000103889
     10       35           0.000089195   -0.000094656    0.000019619
 -------------------------------------------------------------------
 Cartesian Forces:  Max     0.000778842 RMS     0.000275231

 GradGradGradGradGradGradGradGradGradGradGradGradGradGradGradGradGradGrad
 Berny optimization.
 Using GEDIIS/GDIIS optimizer.
 Internal  Forces:  Max     0.000840039 RMS     0.000278502
 Search for a local minimum.
 Step number   4 out of a maximum of   43
 All quantities printed in internal units (Hartrees-Bohrs-Radians)
 Mixed Optimization -- En-DIIS/RFO-DIIS
 Swaping is turned off.
 Update second derivatives using D2CorX and points    1    2    3    4
 DE= -5.86D-05 DEPred=-6.59D-05 R= 8.89D-01
 SS=  1.41D+00  RLast= 1.22D-01 DXNew= 8.4853D-01 3.6502D-01
 Trust test= 8.89D-01 RLast= 1.22D-01 DXMaxT set to 5.05D-01
     Eigenvalues ---    0.00183   0.00346   0.01625   0.02975   0.03091
     Eigenvalues ---    0.03103   0.04570   0.06851   0.10554   0.11505
     Eigenvalues ---    0.12056   0.12155   0.12241   0.12693   0.15950
     Eigenvalues ---    0.16124   0.16487   0.20524   0.23364   0.24187
     Eigenvalues ---    0.27951   0.37301   0.40124   0.621141000.00000
     Eigenvalues --- 1000.000001000.000001000.000001000.000001000.00000
     Eigenvalues --- 1000.000001000.000001000.00000
 En-DIIS/RFO-DIIS IScMMF=        0 using points:     4    3
 RFO step:  Lambda=-8.69022591D-06.
 DIIS coeffs:      0.90172      0.09828
 Iteration  1 RMS(Cart)=  0.05834460 RMS(Int)=  0.00151976
 Iteration  2 RMS(Cart)=  0.00165649 RMS(Int)=  0.00000390
 Iteration  3 RMS(Cart)=  0.00000132 RMS(Int)=  0.00000384
 Iteration  4 RMS(Cart)=  0.00000000 RMS(Int)=  0.00000384
 Variable       Old X    -DE/DX   Delta X   Delta X   Delta X     New X
                                  (DIIS)     (GDIIS)  (Total)
    R1        2.57701  -0.00067   0.00025  -0.00185  -0.00160   2.57541
    R2        2.71713  -0.00007  -0.00127   0.00953   0.00826   2.72539
    R3        2.06306  -0.00025   0.00026  -0.00164  -0.00138   2.06168
    R4        4.14866   0.00025   0.00050  -0.00120  -0.00070   4.14796
    R5        3.76604   0.00013  -0.00004   0.00075   0.00071   3.76675
    R6        3.28183  -0.00003   0.00050  -0.00311  -0.00261   3.27921
    R7        3.29118  -0.00002   0.00040  -0.00251  -0.00211   3.28907
    R8        3.28310   0.00010   0.00042  -0.00171  -0.00129   3.28181
    R9        5.17734   0.00022   0.00080  -0.00433  -0.00353   5.17380
    A1        2.07233   0.00003   0.00100  -0.00710  -0.00610   2.06622
    A2        2.27021   0.00032  -0.00141   0.01129   0.00988   2.28009
    A3        1.94064  -0.00035   0.00041  -0.00419  -0.00378   1.93687
    A4        2.19497  -0.00084   0.00044  -0.00586  -0.00542   2.18955
    A5        2.01440   0.00044   0.00030  -0.00084  -0.00054   2.01386
    A6        2.07295   0.00040  -0.00074   0.00650   0.00576   2.07870
    A7        1.80638  -0.00029  -0.00078   0.00310   0.00231   1.80869
    A8        1.94769  -0.00002  -0.00017   0.00080   0.00062   1.94831
    A9        2.00728   0.00028  -0.00069   0.00652   0.00582   2.01310
   A10        1.82561   0.00004  -0.00103   0.00718   0.00615   1.83176
   A11        1.92979   0.00017   0.00025  -0.00097  -0.00072   1.92907
   A12        1.99346  -0.00038   0.00046  -0.00560  -0.00515   1.98831
    D1       -0.01857  -0.00003  -0.00005  -0.00163  -0.00167  -0.02025
    D2       -3.11445   0.00006   0.00004   0.00320   0.00323  -3.11122
    D3        3.11963  -0.00011  -0.00029  -0.00245  -0.00273   3.11690
    D4        0.02375  -0.00001  -0.00021   0.00239   0.00217   0.02593
    D5        0.58298   0.00001  -0.00390   0.03820   0.03430   0.61729
    D6        2.75129   0.00015  -0.00532   0.04854   0.04322   2.79452
    D7       -2.60572  -0.00009  -0.00396   0.03304   0.02907  -2.57665
    D8       -0.43741   0.00005  -0.00538   0.04338   0.03799  -0.39942
    D9        3.03979   0.00028   0.00360   0.06536   0.06896   3.10875
   D10        0.98651   0.00036   0.00445   0.06056   0.06500   1.05151
   D11       -1.19275   0.00008   0.00201   0.07446   0.07647  -1.11627
   D12        3.03715   0.00016   0.00285   0.06966   0.07252   3.10967
         Item               Value     Threshold  Converged?
 Maximum Force            0.000840     0.000450     NO 
 RMS     Force            0.000279     0.000300     YES
 Maximum Displacement     0.198673     0.001800     NO 
 RMS     Displacement     0.058249     0.001200     NO 
 Predicted change in Energy=-4.000327D-05
 GradGradGradGradGradGradGradGradGradGradGradGradGradGradGradGradGradGrad

                          Input orientation:                          
 ---------------------------------------------------------------------
 Center     Atomic      Atomic             Coordinates (Angstroms)
 Number     Number       Type             X           Y           Z
 ---------------------------------------------------------------------
      1          6           0        2.317085    2.955977   -0.043617
      2          6           0        1.914484    1.656064    0.030543
      3          1           0       -1.097727    2.148308   -0.525125
      4          1           0       -2.120395   -2.143714   -0.150875
      5          1           0        0.512684   -2.753165    0.397359
      6         50           0       -0.150506    0.978387    0.338165
      7         50           0       -0.488911   -1.619805   -0.456035
      8          9           0        1.317751    3.990384    0.062749
      9          1           0        3.311638    3.385568   -0.172372
     10         35           0        3.373876    0.302287   -0.072520
 ---------------------------------------------------------------------
                    Distance matrix (angstroms):
                    1          2          3          4          5
     1  C    0.000000
     2  C    1.362850   0.000000
     3  H    3.541909   3.102336   0.000000
     4  H    6.760886   5.545401   4.428020   0.000000
     5  H    6.003717   4.641217   5.241072   2.757733   0.000000
     6  Sn   3.185220   2.195008   1.735285   3.723861   3.790489
     7  Sn   5.383445   4.091990   3.817605   1.740500   1.736658
     8  F    1.442214   2.409601   3.094087   7.035171   6.799673
     9  H    1.090992   2.232577   4.593229   7.751155   6.770730
    10  Br   2.856520   1.993278   4.858794   6.014654   4.212243
                    6          7          8          9         10
     6  Sn   0.000000
     7  Sn   2.737860   0.000000
     8  F    3.362106   5.916704   0.000000
     9  H    4.247542   6.291137   2.096824   0.000000
    10  Br   3.612069   4.331587   4.224690   3.085525   0.000000
 Stoichiometry    C2H4BrFSn2
 Framework group  C1[X(C2H4BrFSn2)]
 Deg. of freedom    24
 Full point group                 C1      NOp   1
 Largest Abelian subgroup         C1      NOp   1
 Largest concise Abelian subgroup C1      NOp   1
[...]
 Translational            0.889              2.981             43.551
 Rotational               0.889              2.981             32.454
 Vibrational             31.440             26.076             32.253
 Vibration     1          0.593              1.986              6.703
 Vibration     2          0.594              1.981              5.269
 Vibration     3          0.605              1.946              3.387
 Vibration     4          0.614              1.917              2.850
 Vibration     5          0.628              1.872              2.369
 Vibration     6          0.632              1.857              2.256
 Vibration     7          0.659              1.773              1.773
 Vibration     8          0.700              1.652              1.356
 Vibration     9          0.703              1.643              1.331
 Vibration    10          0.720              1.595              1.211
 Vibration    11          0.758              1.491              1.000
 Vibration    12          0.814              1.349              0.780
 Vibration    13          0.833              1.303              0.721
 Vibration    14          0.956              1.035              0.452
                       Q            Log10(Q)             Ln(Q)
 Total Bot       0.752161D-01         -1.123689         -2.587389
 Total V=0       0.370206D+19         18.568444         42.755422
 Vib (Bot)       0.100682D-15        -15.997046        -36.834560
 Vib (Bot)    1  0.107219D+02          1.030273          2.372292
 Vib (Bot)    2  0.519891D+01          0.715913          1.648450
 Vib (Bot)    3  0.198112D+01          0.296911          0.683664
 Vib (Bot)    4  0.148945D+01          0.173027          0.398410
 Vib (Bot)    5  0.114168D+01          0.057546          0.132504
 Vib (Bot)    6  0.107051D+01          0.029591          0.068137
 Vib (Bot)    7  0.801716D+00         -0.095979         -0.221001
 Vib (Bot)    8  0.607232D+00         -0.216645         -0.498844
 Vib (Bot)    9  0.596349D+00         -0.224500         -0.516929
 Vib (Bot)   10  0.545811D+00         -0.262958         -0.605482
 Vib (Bot)   11  0.460210D+00         -0.337044         -0.776071
 Vib (Bot)   12  0.374991D+00         -0.425979         -0.980854
 Vib (Bot)   13  0.352652D+00         -0.452654         -1.042274
 Vib (Bot)   14  0.249871D+00         -0.602283         -1.386809
 Vib (V=0)       0.495549D+04          3.695087          8.508251
 Vib (V=0)    1  0.112336D+02          1.050519          2.418908
 Vib (V=0)    2  0.572290D+01          0.757616          1.744476
 Vib (V=0)    3  0.254324D+01          0.405388          0.933440
 Vib (V=0)    4  0.207114D+01          0.316209          0.728098
 Vib (V=0)    5  0.174637D+01          0.242137          0.557540
 Vib (V=0)    6  0.168152D+01          0.225703          0.519700
 Vib (V=0)    7  0.144485D+01          0.159824          0.368008
 Vib (V=0)    8  0.128659D+01          0.109442          0.251999
 Vib (V=0)    9  0.127822D+01          0.106607          0.245471
 Vib (V=0)   10  0.124021D+01          0.093495          0.215280
 Vib (V=0)   11  0.117955D+01          0.071718          0.165136
 Vib (V=0)   12  0.112499D+01          0.051150          0.117778
 Vib (V=0)   13  0.111185D+01          0.046047          0.106027
 Vib (V=0)   14  0.105896D+01          0.024879          0.057287
 Electronic      0.100000D+01          0.000000          0.000000
 Translational   0.270440D+09          8.432071         19.415561
 Rotational      0.276240D+07          6.441286         14.831610
 ***** Axes restored to original set *****
 -------------------------------------------------------------------
 Center     Atomic                   Forces (Hartrees/Bohr)
 Number     Number              X              Y              Z
 -------------------------------------------------------------------
      1        6          -0.000003903   -0.000010810    0.000002363
      2        6          -0.000007076    0.000017570   -0.000001191
      3        1          -0.000002683   -0.000003958   -0.000001972
      4        1           0.000002329    0.000000576   -0.000002084
      5        1          -0.000001401    0.000000662   -0.000003707
      6       50           0.000006778    0.000005622    0.000001301
      7       50          -0.000002645    0.000001301    0.000005809
      8        9           0.000007085   -0.000009496   -0.000001040
      9        1          -0.000005330    0.000000488    0.000000228
     10       35           0.000006847   -0.000001954    0.000000294
 -------------------------------------------------------------------
 Cartesian Forces:  Max     0.000017570 RMS     0.000005457

 GradGradGradGradGradGradGradGradGradGradGradGradGradGradGradGradGradGrad
 Berny optimization.
 Internal  Forces:  Max     0.000019631 RMS     0.000005508
 Search for a local minimum.
 Step number   1 out of a maximum of    2
 All quantities printed in internal units (Hartrees-Bohrs-Radians)
 Second derivative matrix not updated -- analytic derivatives used.
     Eigenvalues ---    0.00155   0.00738   0.01462   0.01696   0.02203
     Eigenvalues ---    0.03304   0.04785   0.05086   0.06628   0.07613
     Eigenvalues ---    0.07773   0.09046   0.10637   0.11287   0.12485
     Eigenvalues ---    0.13008   0.13052   0.13092   0.14929   0.18730
     Eigenvalues ---    0.20977   0.31267   0.36875   0.556321000.00000
     Eigenvalues --- 1000.000001000.000001000.000001000.000001000.00000
     Eigenvalues --- 1000.000001000.000001000.00000
 Angle between quadratic step and forces=  58.30 degrees.
 Linear search not attempted -- first point.
 Iteration  1 RMS(Cart)=  0.00028325 RMS(Int)=  0.00000004
 Iteration  2 RMS(Cart)=  0.00000005 RMS(Int)=  0.00000001
 Variable       Old X    -DE/DX   Delta X   Delta X   Delta X     New X
                                 (Linear)    (Quad)   (Total)
    R1        2.57552  -0.00002   0.00000  -0.00003  -0.00003   2.57548
    R2        2.71858  -0.00001   0.00000  -0.00003  -0.00003   2.71855
    R3        2.06230   0.00000   0.00000  -0.00001  -0.00001   2.06229
    R4        4.15178   0.00000   0.00000  -0.00004  -0.00004   4.15174
    R5        3.76403   0.00001   0.00000   0.00004   0.00004   3.76407
    R6        3.28180   0.00000   0.00000   0.00000   0.00000   3.28180
    R7        3.29168   0.00000   0.00000  -0.00003  -0.00003   3.29165
    R8        3.28425   0.00000   0.00000  -0.00004  -0.00004   3.28421
    R9        5.18057   0.00000   0.00000  -0.00005  -0.00005   5.18051
    A1        2.07062   0.00000   0.00000  -0.00002  -0.00002   2.07060
    A2        2.27491   0.00000   0.00000   0.00003   0.00003   2.27494
    A3        1.93765   0.00000   0.00000  -0.00001  -0.00001   1.93764
    A4        2.18229   0.00000   0.00000  -0.00003  -0.00003   2.18227
    A5        2.01859   0.00000   0.00000  -0.00002  -0.00002   2.01857
    A6        2.08116   0.00001   0.00000   0.00004   0.00004   2.08120
    A7        1.80154   0.00001   0.00000   0.00009   0.00009   1.80163
    A8        1.95051   0.00000   0.00000   0.00000   0.00000   1.95051
    A9        2.01156  -0.00001   0.00000  -0.00032  -0.00032   2.01124
   A10        1.82489   0.00000   0.00000   0.00003   0.00003   1.82491
   A11        1.92862   0.00000   0.00000   0.00009   0.00009   1.92871
   A12        1.98667   0.00001   0.00000   0.00024   0.00024   1.98692
    D1       -0.02099   0.00000   0.00000  -0.00005  -0.00005  -0.02104
    D2       -3.11057   0.00000   0.00000   0.00001   0.00001  -3.11057
    D3        3.11556   0.00000   0.00000  -0.00003  -0.00003   3.11553
    D4        0.02598   0.00000   0.00000   0.00003   0.00003   0.02601
    D5        0.62541   0.00000   0.00000   0.00008   0.00008   0.62549
    D6        2.79738   0.00000   0.00000  -0.00025  -0.00025   2.79713
    D7       -2.56991   0.00000   0.00000   0.00001   0.00001  -2.56990
    D8       -0.39794   0.00000   0.00000  -0.00031  -0.00031  -0.39825
    D9        3.05893   0.00000   0.00000   0.00023   0.00023   3.05916
   D10        1.01182   0.00000   0.00000  -0.00002  -0.00002   1.01180
   D11       -1.17488   0.00000   0.00000   0.00013   0.00013  -1.17475
   D12        3.06120   0.00000   0.00000  -0.00013  -0.00013   3.06107
         Item               Value     Threshold  Converged?
 Maximum Force            0.000020     0.000450     YES
 RMS     Force            0.000006     0.000300     YES
 Maximum Displacement     0.000673     0.001800     YES
 RMS     Displacement     0.000283     0.001200     YES
 Predicted change in Energy=-5.560431D-09
 Optimization completed.
    -- Stationary point found.
                           ----------------------------
                           !   Optimized Parameters   !
                           ! (Angstroms and Degrees)  !
 --------------------------                            --------------------------
 ! Name  Definition              Value          Derivative Info.                !
 --------------------------------------------------------------------------------
 ! R1    R(1,2)                  1.3629         -DE/DX =    0.0                 !
 ! R2    R(1,8)                  1.4386         -DE/DX =    0.0                 !
 ! R3    R(1,9)                  1.0913         -DE/DX =    0.0                 !
 ! R4    R(2,6)                  2.197          -DE/DX =    0.0                 !
 ! R5    R(2,10)                 1.9918         -DE/DX =    0.0                 !
 ! R6    R(3,6)                  1.7367         -DE/DX =    0.0                 !
 ! R7    R(4,7)                  1.7419         -DE/DX =    0.0                 !
 ! R8    R(5,7)                  1.7379         -DE/DX =    0.0                 !
 ! R9    R(6,7)                  2.7414         -DE/DX =    0.0                 !
 ! A1    A(2,1,8)              118.6378         -DE/DX =    0.0                 !
 ! A2    A(2,1,9)              130.3427         -DE/DX =    0.0                 !
 ! A3    A(8,1,9)              111.0189         -DE/DX =    0.0                 !
 ! A4    A(1,2,6)              125.0363         -DE/DX =    0.0                 !
 ! A5    A(1,2,10)             115.6567         -DE/DX =    0.0                 !
 ! A6    A(6,2,10)             119.2415         -DE/DX =    0.0                 !
 ! A7    A(2,6,3)              103.2209         -DE/DX =    0.0                 !
 ! A8    A(2,6,7)              111.7559         -DE/DX =    0.0                 !
 ! A9    A(3,6,7)              115.2539         -DE/DX =    0.0                 !
 ! A10   A(4,7,5)              104.5583         -DE/DX =    0.0                 !
 ! A11   A(4,7,6)              110.502          -DE/DX =    0.0                 !
 ! A12   A(5,7,6)              113.8279         -DE/DX =    0.0                 !
 ! D1    D(8,1,2,6)             -1.2024         -DE/DX =    0.0                 !
 ! D2    D(8,1,2,10)          -178.2227         -DE/DX =    0.0                 !
 ! D3    D(9,1,2,6)            178.5086         -DE/DX =    0.0                 !
 ! D4    D(9,1,2,10)             1.4883         -DE/DX =    0.0                 !
 ! D5    D(1,2,6,3)             35.8333         -DE/DX =    0.0                 !
 ! D6    D(1,2,6,7)            160.2781         -DE/DX =    0.0                 !
 ! D7    D(10,2,6,3)          -147.2449         -DE/DX =    0.0                 !
 ! D8    D(10,2,6,7)           -22.8002         -DE/DX =    0.0                 !
 ! D9    D(2,6,7,4)            175.264          -DE/DX =    0.0                 !
 ! D10   D(2,6,7,5)             57.9732         -DE/DX =    0.0                 !
 ! D11   D(3,6,7,4)            -67.3155         -DE/DX =    0.0                 !
 ! D12   D(3,6,7,5)            175.3937         -DE/DX =    0.0                 !
 --------------------------------------------------------------------------------
 GradGradGradGradGradGradGradGradGradGradGradGradGradGradGradGradGradGrad

 1\1\GINC-MALLOS71\Freq\RMP2-FC\SDD\C2H4Br1F1Sn2\MARLIN\25-Oct-2024\0\\
 #N Geom=AllCheck Guess=TCheck SCRF=Check GenChk RMP2(FC)/SDD Freq\\Tit
 le Card Required\\0,1\C,2.3136402943,2.9551131571,-0.0370392708\C,1.91
 4462734,1.6538236567,0.0323476673\H,-1.0834548104,2.1576024266,-0.5565
 698734\H,-2.1206139357,-2.1564165973,-0.0941406\H,0.5300002971,-2.7459
 748374,0.3566393816\Sn,-0.157125695,0.983975649,0.3268773399\Sn,-0.506
 0400971,-1.6175539218,-0.4641851815\F,1.3174789912,3.9881691578,0.0632
 348222\H,3.3103295028,3.3828513635,-0.1580237451\Br,3.3713016688,0.298
 7017656,-0.0608674302\\Version=EM64L-G09RevA.01\State=1-A\HF=-196.9996
 624\MP2=-197.4124929\RMSD=7.422e-10\RMSF=5.457e-06\ZeroPoint=0.042812\
 Thermal=0.0529355\Dipole=-0.0603662,-0.3859572,-0.0949604\DipoleDeriv=
 0.0443429,-0.5211252,-0.0438918,-0.0303835,1.1044183,0.0453105,-0.0223
 318,0.0168656,0.0405521,-0.0059835,-0.3706385,0.0002901,-0.4633729,-0.
 4143815,0.0315352,0.1724747,0.3183872,-0.2692618,-0.3247362,-0.0052525
 ,-0.025353,0.0614521,-0.2757882,0.1003012,-0.0386036,0.3322085,-0.0765
 388,-0.4037117,-0.1759876,-0.0254751,-0.1393483,-0.2717747,0.0647132,0
 .1355183,0.2888847,-0.0671464,-0.239977,0.0345596,-0.0139184,0.0652797
 ,-0.3551969,0.1065928,-0.0032597,0.3586896,-0.0837894,1.0299683,0.3675
 906,0.0619649,0.2680218,0.6813052,-0.1761565,-0.1573067,-0.6067435,0.2
 815399,0.6548394,0.1256018,0.0209537,0.0542598,0.6609046,-0.1644955,-0
 .1394361,-0.6483613,0.1810664,-0.3499438,0.4738494,0.0280776,0.1523246
 ,-0.9531385,-0.0270196,0.0425909,-0.0177115,-0.1959986,-0.0137597,0.00
 06769,0.0220173,-0.0850833,-0.0505297,0.0084125,-0.0096187,-0.0434859,
 0.2084598,-0.3910386,0.0707254,-0.0246652,0.1168499,-0.1258185,0.01080
 63,0.0199729,0.0012665,-0.0188834\Polar=116.0280554,11.776705,174.6768
 845,9.2159973,31.3839965,62.1746209\PG=C01 [X(C2H4Br1F1Sn2)]\NImag=0\\
 0.58533375,0.16758657,0.70175387,-0.05963236,-0.03098424,0.10220241,-0
 .12280926,-0.12210882,0.01190843,0.28637718,-0.14916007,-0.44908590,0.
 02500124,0.10299252,0.58636046,0.01445587,0.02203101,-0.03951434,-0.02
 927982,-0.02717679,0.05592295,-0.00036317,0.00131937,0.00019756,-0.002
 72648,0.00553135,-0.00513926,0.04548423,0.00224171,-0.00186323,-0.0000
 5851,-0.00093332,0.00292033,-0.00117262,-0.04208068,0.06654467,-0.0006
 0238,0.00003006,-0.00016237,0.00192458,0.00010047,0.00077396,0.0322000
 6,-0.04216252,0.03605707,-0.00006641,0.00038108,-0.00002268,0.00016891
 ,0.00003574,-0.00032730,0.00011313,-0.00030924,-0.00011388,0.11277622,
 -0.00102962,0.00040099,0.00016712,0.00046594,-0.00217647,-0.00205843,0
 .00041506,-0.00065991,-0.00107852,0.03334286,0.02281631,-0.00064681,-0
 .00013463,0.00013278,-0.00051583,-0.00165115,0.00113039,0.00019987,-0.
 00113040,-0.00084867,-0.02102343,-0.00946058,0.01111610,0.00034318,-0.
 00002804,-0.00005622,-0.00007453,0.00056608,-0.00014461,0.00021036,-0.
 00027300,-0.00066827,-0.00560944,0.00635926,-0.00521063,0.05553020,-0.
 00012149,-0.00000111,0.00005833,0.00035006,-0.00061835,-0.00123333,-0.
 00026176,-0.00172953,-0.00204228,-0.00222379,0.00274209,-0.00057383,-0
 .04564533,0.06083682,0.00042101,-0.00049810,0.00009177,-0.00029176,-0.
 00017794,-0.00113676,-0.00066764,-0.00181004,0.00073041,0.00253128,-0.
 00081708,0.00083551,0.03342374,-0.03737915,0.03150261,-0.00126867,-0.0
 0567546,0.00092599,-0.09604580,-0.02936382,0.01721200,-0.04070922,0.04
 237303,-0.03499673,-0.00077847,-0.00480338,-0.00188409,0.00002593,0.00
 328268,0.00037767,0.15729502,-0.01965535,0.00124104,0.00197944,-0.0291
 9082,-0.03034263,0.01176115,0.03675120,-0.06801058,0.04913688,0.002215
 93,0.00362569,-0.00152511,-0.00076647,0.00198126,-0.00280769,0.0014147
 0,0.17406160,0.00087647,0.00064350,0.00381072,0.00849622,0.00352771,-0
 .01828801,-0.02751463,0.03824121,-0.03777804,0.00205988,0.00613043,0.0
 0011547,0.00085365,0.00802400,0.00128537,0.02071906,-0.03762210,0.0617
 5386,-0.00268910,0.00058742,0.00031420,-0.00006554,-0.00568187,-0.0015
 6509,0.00043612,0.00279161,0.00089738,-0.10658981,-0.03512205,0.028520
 57,-0.05052370,0.04515142,-0.03596947,-0.00842000,-0.00767130,-0.00363
 731,0.16740378,0.00205200,-0.00027381,-0.00025146,0.00092357,0.0027411
 1,-0.00120710,-0.00040718,0.00221786,-0.00311334,-0.03292708,-0.026231
 64,0.01462406,0.04009988,-0.06315821,0.04365955,-0.00965018,-0.0771239
 6,-0.01848382,0.00035734,0.16112776,0.00083811,0.00076317,-0.00027937,
 0.00206978,0.00427510,0.00091653,0.00038557,0.00790892,0.00093620,0.01
 689848,0.00695906,-0.01242074,-0.02831890,0.03298521,-0.03322778,-0.00
 251421,-0.01825106,-0.01264899,0.01168585,-0.03546489,0.05664503,-0.14
 585494,0.08079057,0.01262472,0.00374928,0.00618197,-0.00100378,0.00015
 821,-0.00262416,0.00029791,0.00009104,0.00007739,0.00005785,0.00000836
 ,-0.00028513,-0.00020596,-0.00384956,0.00372901,-0.00087397,0.00048677
 ,-0.00017289,0.00042082,0.16263951,0.08599722,-0.13661456,-0.00827167,
 0.03275231,-0.03684227,-0.00214367,-0.00121151,-0.00010676,-0.00037543
 ,-0.00026687,-0.00020579,0.00005354,-0.00015190,-0.00007187,0.00008552
 ,0.00313862,-0.00047415,-0.00083416,0.00030230,0.00032787,-0.00000608,
 -0.12103115,0.18193328,0.01182165,-0.00717379,-0.02877768,-0.00048724,
 -0.00050475,0.00341972,-0.00056161,-0.00018893,0.00032018,-0.00003841,
 -0.00019123,0.00009939,0.00001434,-0.00011346,-0.00015227,0.00033231,-
 0.00019130,-0.00320096,-0.00019695,-0.00001093,0.00019827,-0.01406918,
 0.01182196,0.01729048,-0.29985797,-0.12093528,0.03263048,0.00280837,0.
 00921409,0.00071684,0.00001545,-0.00021785,0.00008565,0.00000169,0.000
 06608,0.00001652,-0.00001529,-0.00001224,0.00001977,0.00020936,0.00111
 123,0.00016929,0.00018670,-0.00005252,-0.00007737,-0.02028649,0.000070
 15,0.00284476,0.31522277,-0.12159313,-0.09830509,0.01529848,-0.0252548
 3,-0.00415373,0.00317011,-0.00011148,0.00020049,-0.00003332,-0.0000048
 7,-0.00026083,-0.00024858,0.00006716,-0.00007214,0.00001127,0.00076243
 ,-0.00204530,-0.00029007,-0.00051443,0.00060953,0.00053119,0.03482338,
 -0.00358202,-0.00404121,0.11155273,0.10771604,0.03243059,0.01523843,-0
 .03696588,0.00141520,-0.00046939,0.01015561,0.00073440,0.00023453,-0.0
 0020829,0.00004987,0.00031753,-0.00022678,0.00002535,0.00018483,0.0001
 6707,-0.00066049,-0.00095898,0.00377994,0.00026764,0.00013586,-0.00006
 794,0.00223423,-0.00036938,0.00369859,-0.03591561,-0.01430588,0.022565
 10,-0.01276740,-0.00191741,0.00110988,-0.07138211,0.05968401,0.0050751
 5,-0.00261863,-0.00096810,0.00097569,-0.00010685,0.00022845,0.00048598
 ,0.00010494,-0.00023442,0.00036135,-0.00645858,0.01206186,-0.00114866,
 -0.00022522,-0.00022294,-0.00138813,0.00285782,0.00040083,0.00034034,0
 .00171540,0.00027304,-0.00058119,0.08888063,0.03368217,-0.01725220,-0.
 00293873,0.04000339,-0.06880254,-0.00197033,0.00005562,0.00048667,-0.0
 0046199,-0.00024375,-0.00005043,0.00004669,-0.00022765,0.00009103,-0.0
 0026635,-0.00147862,-0.00291297,0.00066330,-0.00020045,-0.00023649,0.0
 0029939,-0.00148900,-0.00436371,0.00059363,-0.00079640,-0.00010695,-0.
 00000753,-0.06930532,0.09314760,0.00003785,0.00008459,-0.00053802,0.00
 476044,-0.00292448,-0.01338003,0.00016568,0.00013837,0.00017957,-0.000
 01381,0.00003169,0.00006655,0.00008155,0.00008969,-0.00009593,0.000488
 48,-0.00152123,0.00117064,-0.00031682,0.00011207,-0.00005121,0.0005173
 5,0.00003937,0.00710429,-0.00049032,-0.00009200,-0.00289742,-0.0052304
 0,0.00404193,0.00844155\\0.00000390,0.00001081,-0.00000236,0.00000708,
 -0.00001757,0.00000119,0.00000268,0.00000396,0.00000197,-0.00000233,-0
 .00000058,0.00000208,0.00000140,-0.00000066,0.00000371,-0.00000678,-0.
 00000562,-0.00000130,0.00000265,-0.00000130,-0.00000581,-0.00000708,0.
 00000950,0.00000104,0.00000533,-0.00000049,-0.00000023,-0.00000685,0.0
 0000195,-0.00000029\\\@


 PERICLES, SOPHOCLES,
 PELOPONESIAN WAR,
 FRENCH VERBS, LATIN VERBS
 H2SO4.
 Job cpu time:  0 days  0 hours  4 minutes 38.4 seconds.
 File lengths (MBytes):  RWF=    197 Int=      0 D2E=      0 Chk=      2 Scr=      1
 Normal termination of Gaussian 09 at Fri Oct 25 12:52:56 2024.
