 Entering Gaussian System, Link 0=g09
 Initial command:
 /u/local/G09/g09/l1.exe /tmp/marlin/22662.mallos00.local/Gau-2929.inp -scrdir=/tmp/marlin/22662.mallos00.local/
 Entering Link 1 = /u/local/G09/g09/l1.exe PID=      2931.
  
 Copyright (c) 1988,1990,1992,1993,1995,1998,2003,2009, Gaussian, Inc.
                  All Rights Reserved.
  
 This is part of the Gaussian(R) 09 program.  It is based on
 the Gaussian(R) 03 system (copyright 2003, Gaussian, Inc.),
 the Gaussian(R) 98 system (copyright 1998, Gaussian, Inc.),
 the Gaussian(R) 94 system (copyright 1995, Gaussian, Inc.),
 the Gaussian 92(TM) system (copyright 1992, Gaussian, Inc.),
 the Gaussian 90(TM) system (copyright 1990, Gaussian, Inc.),
 the Gaussian 88(TM) system (copyright 1988, Gaussian, Inc.),
 the Gaussian 86(TM) system (copyright 1986, Carnegie Mellon
 University), and the Gaussian 82(TM) system (copyright 1983,
 Carnegie Mellon University). Gaussian is a federally registered
 trademark of Gaussian, Inc.
  
 This software contains proprietary and confidential information,
 including trade secrets, belonging to Gaussian, Inc.
  
 This software is provided under written license and may be
 used, copied, transmitted, or stored only in accord with that
 written license.
  
 The following legend is applicable only to US Government
 contracts under FAR:
  
                    RESTRICTED RIGHTS LEGEND
  
 Use, reproduction and disclosure by the US Government is
 subject to restrictions as set forth in subparagraphs (a)
 and (c) of the Commercial Computer Software - Restricted
 Rights clause in FAR 52.227-19.
  
 Gaussian, Inc.
 340 Quinnipiac St., Bldg. 40, Wallingford CT 06492
  
  
 ---------------------------------------------------------------
 Warning -- This program may not be used in any manner that
 competes with the business of Gaussian, Inc. or will provide
 assistance to any competitor of Gaussian, Inc.  The licensee
 of this program is prohibited from giving any competitor of
 Gaussian, Inc. access to this program.  By using this program,
 the user acknowledges that Gaussian, Inc. is engaged in the
 business of creating and licensing software in the field of
 computational chemistry and represents and warrants to the
 licensee that it is not a competitor of Gaussian, Inc. and that
 it will not use this program in any manner prohibited above.
 ---------------------------------------------------------------
  

 Cite this work as:
 Gaussian 09, Revision A.01,
 M. J. Frisch, G. W. Trucks, H. B. Schlegel, G. E. Scuseria, 
 M. A. Robb, J. R. Cheeseman, G. Scalmani, V. Barone, B. Mennucci, 
 G. A. Petersson, H. Nakatsuji, M. Caricato, X. Li, H. P. Hratchian, 
 A. F. Izmaylov, J. Bloino, G. Zheng, J. L. Sonnenberg, M. Hada, 
 M. Ehara, K. Toyota, R. Fukuda, J. Hasegawa, M. Ishida, T. Nakajima, 
 Y. Honda, O. Kitao, H. Nakai, T. Vreven, J. A. Montgomery, Jr., 
 J. E. Peralta, F. Ogliaro, M. Bearpark, J. J. Heyd, E. Brothers, 
 K. N. Kudin, V. N. Staroverov, R. Kobayashi, J. Normand, 
 K. Raghavachari, A. Rendell, J. C. Burant, S. S. Iyengar, J. Tomasi, 
 M. Cossi, N. Rega, J. M. Millam, M. Klene, J. E. Knox, J. B. Cross, 
 V. Bakken, C. Adamo, J. Jaramillo, R. Gomperts, R. E. Stratmann, 
 O. Yazyev, A. J. Austin, R. Cammi, C. Pomelli, J. W. Ochterski, 
 R. L. Martin, K. Morokuma, V. G. Zakrzewski, G. A. Voth, 
 P. Salvador, J. J. Dannenberg, S. Dapprich, A. D. Daniels, 
 O. Farkas, J. B. Foresman, J. V. Ortiz, J. Cioslowski, 
 and D. J. Fox, Gaussian, Inc., Wallingford CT, 2009.
 
 ******************************************
 Gaussian 09:  EM64L-G09RevA.01  8-May-2009
                24-Oct-2024 
 ******************************************
 %mem=412GB
 %nproc=24
 Will use up to   24 processors via shared memory.
 %chk=6-lanl2dz.chk
 -----------------------------------------------
 # opt freq=noraman hf/lanl2dz geom=connectivity
 -----------------------------------------------
 1/18=20,19=15,38=1,57=2/1,3;
 2/9=110,12=2,17=6,18=5,40=1/2;
 3/5=6,6=3,11=9,16=1,25=1,30=1,71=1/1,2,3;
 4//1;
 5/5=2,38=5/2;
 6/7=2,8=2,9=2,10=2,28=1/1;
 7//1,2,3,16;
 1/18=20,19=15/3(2);
 2/9=110/2;
 99//99;
 2/9=110/2;
 3/5=6,6=3,11=9,16=1,25=1,30=1,71=1/1,2,3;
 4/5=5,16=3/1;
 5/5=2,38=5/2;
 7//1,2,3,16;
 1/18=20,19=15/3(-5);
 2/9=110/2;
 6/7=2,8=2,9=2,10=2,19=2,28=1/1;
 99/9=1/99;
 -------------------
 Title Card Required
 -------------------
 Symbolic Z-matrix:
 Charge =  0 Multiplicity = 1
 C                     2.25546   2.98342   0. 
 C                     1.95702   1.67669   0. 
 H                    -1.03264   2.08147  -0.66329 
 H                    -2.2088   -2.08731   0. 
 H                     0.57987  -2.78595   0. 
 Sn                    0.        0.91451   0. 
 Sn                   -0.60005  -1.57956   0. 
 Br                    3.38842   0.41209   0. 
 F                     3.53485   3.41431   0. 
 H                     1.51001   3.75101   0. 
 

 GradGradGradGradGradGradGradGradGradGradGradGradGradGradGradGradGradGrad
 Berny optimization.
 Initialization pass.
                           ----------------------------
                           !    Initial Parameters    !
                           ! (Angstroms and Degrees)  !
 --------------------------                            --------------------------
 ! Name  Definition              Value          Derivative Info.                !
 --------------------------------------------------------------------------------
 ! R1    R(1,2)                  1.3404         estimate D2E/DX2                !
 ! R2    R(1,9)                  1.35           estimate D2E/DX2                !
 ! R3    R(1,10)                 1.07           estimate D2E/DX2                !
 ! R4    R(2,6)                  2.1002         estimate D2E/DX2                !
 ! R5    R(2,8)                  1.91           estimate D2E/DX2                !
 ! R6    R(3,6)                  1.6935         estimate D2E/DX2                !
 ! R7    R(4,7)                  1.687          estimate D2E/DX2                !
 ! R8    R(5,7)                  1.6875         estimate D2E/DX2                !
 ! R9    R(6,7)                  2.5652         estimate D2E/DX2                !
 ! A1    A(2,1,9)              121.4784         estimate D2E/DX2                !
 ! A2    A(2,1,10)             122.9738         estimate D2E/DX2                !
 ! A3    A(9,1,10)             115.5478         estimate D2E/DX2                !
 ! A4    A(1,2,6)              124.1436         estimate D2E/DX2                !
 ! A5    A(1,2,8)              118.5949         estimate D2E/DX2                !
 ! A6    A(6,2,8)              117.2615         estimate D2E/DX2                !
 ! A7    A(2,6,3)              108.5492         estimate D2E/DX2                !
 ! A8    A(2,6,7)              124.8064         estimate D2E/DX2                !
 ! A9    A(3,6,7)              121.8242         estimate D2E/DX2                !
 ! A10   A(4,7,5)              116.8478         estimate D2E/DX2                !
 ! A11   A(4,7,6)              121.0443         estimate D2E/DX2                !
 ! A12   A(5,7,6)              122.1079         estimate D2E/DX2                !
 ! D1    D(9,1,2,6)            180.0            estimate D2E/DX2                !
 ! D2    D(9,1,2,8)              0.0            estimate D2E/DX2                !
 ! D3    D(10,1,2,6)             0.0            estimate D2E/DX2                !
 ! D4    D(10,1,2,8)           180.0            estimate D2E/DX2                !
 ! D5    D(1,2,6,3)             24.401          estimate D2E/DX2                !
 ! D6    D(1,2,6,7)            180.0            estimate D2E/DX2                !
 ! D7    D(8,2,6,3)           -155.599          estimate D2E/DX2                !
 ! D8    D(8,2,6,7)              0.0            estimate D2E/DX2                !
 ! D9    D(2,6,7,4)            180.0            estimate D2E/DX2                !
 ! D10   D(2,6,7,5)              0.0            estimate D2E/DX2                !
 ! D11   D(3,6,7,4)            -27.4487         estimate D2E/DX2                !
 ! D12   D(3,6,7,5)            152.5513         estimate D2E/DX2                !
 --------------------------------------------------------------------------------
 Trust Radius=3.00D-01 FncErr=1.00D-07 GrdErr=1.00D-07
 Number of steps in this run=  43 maximum allowed number of steps= 100.
 GradGradGradGradGradGradGradGradGradGradGradGradGradGradGradGradGradGrad

                          Input orientation:                          
 ---------------------------------------------------------------------
 Center     Atomic      Atomic             Coordinates (Angstroms)
 Number     Number       Type             X           Y           Z
 ---------------------------------------------------------------------
      1          6           0        2.255461    2.983417    0.000000
      2          6           0        1.957023    1.676688    0.000000
      3          1           0       -1.032642    2.081472   -0.663292
      4          1           0       -2.208804   -2.087312    0.000000
      5          1           0        0.579873   -2.785954    0.000000
      6         50           0        0.000000    0.914514    0.000000
      7         50           0       -0.600048   -1.579560    0.000000
      8         35           0        3.388416    0.412087    0.000000
      9          9           0        3.534847    3.414314    0.000000
     10          1           0        1.510012    3.751015    0.000000
 ---------------------------------------------------------------------
                    Distance matrix (angstroms):
                    1          2          3          4          5
     1  C    0.000000
     2  C    1.340375   0.000000
     3  H    3.473483   3.088997   0.000000
     4  H    6.755883   5.614429   4.382017   0.000000
     5  H    6.007765   4.670301   5.170299   2.874860   0.000000
     6  Sn   3.060631   2.100202   1.693546   3.726899   3.745626
     7  Sn   5.382814   4.140261   3.745697   1.686982   1.687483
     8  Br   2.809862   1.910000   4.772060   6.129916   4.256217
     9  F    1.350000   2.347098   4.803996   7.953453   6.868420
    10  H    1.070000   2.121945   3.113265   6.922113   6.602811
                    6          7          8          9         10
     6  Sn   0.000000
     7  Sn   2.565241   0.000000
     8  Br   3.425463   4.458083   0.000000
     9  F    4.329450   6.483528   3.005795   0.000000
    10  H    3.213390   5.733008   3.831036   2.052638   0.000000
 Stoichiometry    C2H4BrFSn2
 Framework group  C1[X(C2H4BrFSn2)]
 Deg. of freedom    24
 Full point group                 C1      NOp   1
 Largest Abelian subgroup         C1      NOp   1
 Largest concise Abelian subgroup C1      NOp   1
                         Standard orientation:                         
 ---------------------------------------------------------------------
 Center     Atomic      Atomic             Coordinates (Angstroms)
 Number     Number       Type             X           Y           Z
 ---------------------------------------------------------------------
      1          6           0        2.772590   -1.258743   -0.015699
      2          6           0        1.715176   -0.435079   -0.007874
      3          1           0       -0.345377   -2.645427    0.632740
      4          1           0       -3.892152   -0.152806   -0.007027
      5          1           0       -2.173343    2.151529    0.016499
      6         50           0       -0.282928   -1.081899   -0.015008
      7         50           0       -2.324730    0.470934   -0.000273
      8         35           0        2.024591    1.449598    0.010983
      9          9           0        4.036238   -0.783700   -0.010531
     10          1           0        2.680375   -2.324709   -0.026336
 ---------------------------------------------------------------------
 Rotational constants (GHZ):      1.3292402      0.3524010      0.2786859
 Standard basis: LANL2DZ (5D, 7F)
 There are    59 symmetry adapted basis functions of A   symmetry.
 Integral buffers will be    131072 words long.
 Raffenetti 1 integral format.
 Two-electron integral symmetry is turned on.
    59 basis functions,   127 primitive gaussians,    59 cartesian basis functions
    20 alpha electrons       20 beta electrons
       nuclear repulsion energy       135.7937367355 Hartrees.
 NAtoms=   10 NActive=   10 NUniq=   10 SFac= 7.50D-01 NAtFMM=   80 NAOKFM=F Big=F
 One-electron integrals computed using PRISM.
   1 Symmetry operations used in ECPInt.
 ECPInt:  NShTT=     630 NPrTT=    3262 LenC2=     623 LenP2D=    2670.
 LDataN:  DoStor=T MaxTD1= 4 Len=   56
 NBasis=    59 RedAO= T  NBF=    59
 NBsUse=    59 1.00D-06 NBFU=    59
 Harris functional with IExCor=  205 diagonalized for initial guess.
 ExpMin= 6.30D-02 ExpMax= 1.00D+04 ExpMxC= 3.50D+02 IAcc=2 IRadAn=         0 AccDes= 0.00D+00
 HarFok:  IExCor=  205 AccDes= 0.00D+00 IRadAn=         0 IDoV= 1
 ScaDFX=  1.000000  1.000000  1.000000  1.000000
 Defaulting to unpruned grid for atomic number  50.
 Defaulting to unpruned grid for atomic number  50.
 Defaulting to unpruned grid for atomic number  50.
 Defaulting to unpruned grid for atomic number  50.
 Defaulting to unpruned grid for atomic number  50.
 Defaulting to unpruned grid for atomic number  50.
 Defaulting to unpruned grid for atomic number  50.
 Defaulting to unpruned grid for atomic number  50.
 Defaulting to unpruned grid for atomic number  50.
 Defaulting to unpruned grid for atomic number  50.
 Defaulting to unpruned grid for atomic number  50.
 Defaulting to unpruned grid for atomic number  50.
 Defaulting to unpruned grid for atomic number  50.
 Defaulting to unpruned grid for atomic number  50.
 Defaulting to unpruned grid for atomic number  50.
 Defaulting to unpruned grid for atomic number  50.
 Defaulting to unpruned grid for atomic number  50.
 Defaulting to unpruned grid for atomic number  50.
 Defaulting to unpruned grid for atomic number  50.
 Defaulting to unpruned grid for atomic number  50.
 Defaulting to unpruned grid for atomic number  50.
 Defaulting to unpruned grid for atomic number  50.
 Defaulting to unpruned grid for atomic number  50.
 Defaulting to unpruned grid for atomic number  50.
 FoFCou: FMM=F IPFlag=           0 FMFlag=      100000 FMFlg1=           0
         NFxFlg=           0 DoJE=T BraDBF=F KetDBF=T FulRan=T
         Omega=  0.000000  0.000000  1.000000  0.000000  0.000000 ICntrl=     500 IOpCl=  0
         NMat0=    1 NMatS0=    1 NMatT0=    0 NMatD0=    1 NMtDS0=    0 NMtDT0=    0
         I1Cent=           4 NGrid=           0.
 Petite list used in FoFCou.
 Initial guess orbital symmetries:
       Occupied  (A) (A) (A) (A) (A) (A) (A) (A) (A) (A) (A) (A)
                 (A) (A) (A) (A) (A) (A) (A) (A)
       Virtual   (A) (A) (A) (A) (A) (A) (A) (A) (A) (A) (A) (A)
                 (A) (A) (A) (A) (A) (A) (A) (A) (A) (A) (A) (A)
                 (A) (A) (A) (A) (A) (A) (A) (A) (A) (A) (A) (A)
                 (A) (A) (A)
 The electronic state of the initial guess is 1-A.
 Requested convergence on RMS density matrix=1.00D-08 within 128 cycles.
 Requested convergence on MAX density matrix=1.00D-06.
 Requested convergence on             energy=1.00D-06.
 No special actions if energy rises.
 Keep R1 ints in memory in canonical form, NReq=2397822.
 SCF Done:  E(RHF) =  -196.761675357     A.U. after   15 cycles
             Convg  =    0.5679D-08             -V/T =  2.0703

 **********************************************************************

            Population analysis using the SCF density.

 **********************************************************************

 Orbital symmetries:
       Occupied  (A) (A) (A) (A) (A) (A) (A) (A) (A) (A) (A) (A)
                 (A) (A) (A) (A) (A) (A) (A) (A)
       Virtual   (A) (A) (A) (A) (A) (A) (A) (A) (A) (A) (A) (A)
                 (A) (A) (A) (A) (A) (A) (A) (A) (A) (A) (A) (A)
                 (A) (A) (A) (A) (A) (A) (A) (A) (A) (A) (A) (A)
                 (A) (A) (A)
 The electronic state is 1-A.
 Alpha  occ. eigenvalues --  -26.31767 -11.37257 -11.30889  -1.64347  -1.11317
 Alpha  occ. eigenvalues --   -0.99365  -0.81616  -0.75728  -0.70332  -0.70215
 Alpha  occ. eigenvalues --   -0.65782  -0.61628  -0.55851  -0.48754  -0.48270
 Alpha  occ. eigenvalues --   -0.46981  -0.43130  -0.40582  -0.37502  -0.25301
 Alpha virt. eigenvalues --   -0.00230   0.07401   0.08747   0.12004   0.13966
 Alpha virt. eigenvalues --    0.15127   0.18061   0.25320   0.27727   0.29370
 Alpha virt. eigenvalues --    0.31941   0.32465   0.33261   0.36011   0.36555
 Alpha virt. eigenvalues --    0.42248   0.47148   0.49893   0.55219   0.59641
 Alpha virt. eigenvalues --    0.61400   0.64398   0.71721   0.73788   0.80714
 Alpha virt. eigenvalues --    0.84619   0.96139   1.15769   1.18311   1.23096
 Alpha virt. eigenvalues --    1.26355   1.29037   1.30723   1.36293   1.44422
 Alpha virt. eigenvalues --    2.36280  12.03147  13.45428  19.89926
          Condensed to atoms (all electrons):
              1          2          3          4          5          6
     1  C    4.951599   0.353811   0.004741   0.000000   0.000005  -0.052342
     2  C    0.353811   6.007312  -0.027266   0.000063   0.000307   0.187957
     3  H    0.004741  -0.027266   0.796395   0.000055   0.000010   0.379902
     4  H    0.000000   0.000063   0.000055   0.790760  -0.006604  -0.015756
     5  H    0.000005   0.000307   0.000010  -0.006604   0.780787  -0.018971
     6  Sn  -0.052342   0.187957   0.379902  -0.015756  -0.018971   2.489913
     7  Sn  -0.000608  -0.030747  -0.015454   0.361596   0.367225   0.537378
     8  Br  -0.117896   0.265978   0.000318   0.000002  -0.000194  -0.053594
     9  F    0.223152  -0.063017  -0.000002   0.000000   0.000000   0.000075
    10  H    0.387550  -0.043994  -0.000140   0.000000   0.000000   0.005673
              7          8          9         10
     1  C   -0.000608  -0.117896   0.223152   0.387550
     2  C   -0.030747   0.265978  -0.063017  -0.043994
     3  H   -0.015454   0.000318  -0.000002  -0.000140
     4  H    0.361596   0.000002   0.000000   0.000000
     5  H    0.367225  -0.000194   0.000000   0.000000
     6  Sn   0.537378  -0.053594   0.000075   0.005673
     7  Sn   2.471766   0.008267  -0.000031   0.000036
     8  Br   0.008267   6.857983  -0.004914   0.001524
     9  F   -0.000031  -0.004914   9.194180  -0.037597
    10  H    0.000036   0.001524  -0.037597   0.466311
 Mulliken atomic charges:
              1
     1  C    0.249988
     2  C   -0.650404
     3  H   -0.138559
     4  H   -0.130115
     5  H   -0.122566
     6  Sn   0.539765
     7  Sn   0.300573
     8  Br   0.042525
     9  F   -0.311845
    10  H    0.220638
 Sum of Mulliken atomic charges =   0.00000
 Mulliken charges with hydrogens summed into heavy atoms:
              1
     1  C    0.470627
     2  C   -0.650404
     6  Sn   0.401206
     7  Sn   0.047891
     8  Br   0.042525
     9  F   -0.311845
 Sum of Mulliken charges with hydrogens summed into heavy atoms =   0.00000
 Electronic spatial extent (au):  <R**2>=           1378.6272
 Charge=              0.0000 electrons
 Dipole moment (field-independent basis, Debye):
    X=             -2.7054    Y=             -1.9983    Z=             -0.4165  Tot=              3.3890
 Quadrupole moment (field-independent basis, Debye-Ang):
   XX=            -76.5435   YY=            -63.5274   ZZ=            -70.9992
   XY=             -5.6905   XZ=              0.2989   YZ=              0.3249
 Traceless Quadrupole moment (field-independent basis, Debye-Ang):
   XX=             -6.1868   YY=              6.8293   ZZ=             -0.6425
   XY=             -5.6905   XZ=              0.2989   YZ=              0.3249
 Octapole moment (field-independent basis, Debye-Ang**2):
  XXX=           -151.8119  YYY=              1.9774  ZZZ=             -1.3795  XYY=            -17.7432
  XXY=             -1.5255  XXZ=             -0.4154  XZZ=            -27.6675  YZZ=              4.6384
  YYZ=             -1.8773  XYZ=              0.2274
 Hexadecapole moment (field-independent basis, Debye-Ang**3):
 XXXX=          -2273.6745 YYYY=           -578.5340 ZZZZ=           -149.6996 XXXY=             22.3898
 XXXZ=             -0.8777 YYYX=             18.5717 YYYZ=              8.6272 ZZZX=              1.5330
 ZZZY=              1.8045 XXYY=           -397.1122 XXZZ=           -362.5073 YYZZ=           -128.4229
 XXYZ=              2.0782 YYXZ=             -0.7481 ZZXY=              9.7018
 N-N= 1.357937367355D+02 E-N=-7.280242073860D+02  KE= 1.838456799059D+02
   1 Symmetry operations used in ECPInt.
 ECPInt:  NShTT=     630 NPrTT=    3262 LenC2=     623 LenP2D=    2670.
 LDataN:  DoStor=T MaxTD1= 5 Len=  102
 Calling FoFJK, ICntrl=      2127 FMM=F ISym2X=0 I1Cent= 0 IOpClX= 0 NMat=1 NMatS=1 NMatT=0.
 ***** Axes restored to original set *****
 -------------------------------------------------------------------
 Center     Atomic                   Forces (Hartrees/Bohr)
 Number     Number              X              Y              Z
 -------------------------------------------------------------------
      1        6          -0.021556977   -0.032514566   -0.000155391
      2        6          -0.004262715    0.026687276   -0.002309538
      3        1          -0.001519746    0.000953825    0.003497249
      4        1           0.000146139    0.001295458    0.002825666
      5        1          -0.000890107   -0.000062834    0.007188461
      6       50          -0.007759837    0.003556969    0.001290665
      7       50           0.003085543   -0.003588562   -0.013281241
      8       35           0.015957227   -0.015724393    0.000988309
      9        9           0.011476780    0.013897127    0.000153701
     10        1           0.005323693    0.005499700   -0.000197881
 -------------------------------------------------------------------
 Cartesian Forces:  Max     0.032514566 RMS     0.010793410

 GradGradGradGradGradGradGradGradGradGradGradGradGradGradGradGradGradGrad
 Berny optimization.
 Internal  Forces:  Max     0.022369705 RMS     0.007102516
 Search for a local minimum.
 Step number   1 out of a maximum of   43
 All quantities printed in internal units (Hartrees-Bohrs-Radians)
 Mixed Optimization -- RFO/linear search
 Second derivative matrix not updated -- first step.
     Eigenvalues ---    0.00230   0.00230   0.00230   0.00647   0.01570
     Eigenvalues ---    0.02877   0.02877   0.11426   0.13078   0.13270
     Eigenvalues ---    0.13286   0.13996   0.15197   0.16000   0.16000
     Eigenvalues ---    0.16000   0.17771   0.22000   0.22237   0.25000
     Eigenvalues ---    0.25000   0.37230   0.55021   0.571211000.00000
     Eigenvalues --- 1000.000001000.000001000.000001000.000001000.00000
     Eigenvalues --- 1000.000001000.000001000.00000
 RFO step:  Lambda=-1.72407426D-02 EMin= 2.30000000D-03
 Linear search not attempted -- first point.
 Maximum step size (   0.300) exceeded in Quadratic search.
    -- Step size scaled by   0.383
 Iteration  1 RMS(Cart)=  0.05868062 RMS(Int)=  0.00574304
 Iteration  2 RMS(Cart)=  0.00507600 RMS(Int)=  0.00288835
 Iteration  3 RMS(Cart)=  0.00001178 RMS(Int)=  0.00288833
 Iteration  4 RMS(Cart)=  0.00000007 RMS(Int)=  0.00288833
 Variable       Old X    -DE/DX   Delta X   Delta X   Delta X     New X
                                 (Linear)    (Quad)   (Total)
    R1        2.53294  -0.01385   0.00000  -0.00900  -0.00900   2.52394
    R2        2.55113   0.01531   0.00000   0.01032   0.01032   2.56145
    R3        2.02201   0.00024   0.00000   0.00023   0.00023   2.02224
    R4        3.96881   0.00568   0.00000   0.01383   0.01383   3.98264
    R5        3.60938   0.02237   0.00000   0.04390   0.04390   3.65328
    R6        3.20034   0.00021   0.00000   0.00055   0.00055   3.20089
    R7        3.18793  -0.00053   0.00000  -0.00135  -0.00135   3.18658
    R8        3.18888  -0.00058   0.00000  -0.00147  -0.00147   3.18741
    R9        4.84760   0.00174   0.00000   0.00507   0.00507   4.85267
    A1        2.12020   0.01101   0.00000   0.01776   0.01776   2.13796
    A2        2.14630   0.00223   0.00000   0.00782   0.00782   2.15411
    A3        2.01669  -0.01324   0.00000  -0.02558  -0.02558   1.99111
    A4        2.16671  -0.00729   0.00000  -0.01043  -0.01044   2.15627
    A5        2.06987   0.00584   0.00000   0.00837   0.00836   2.07823
    A6        2.04660   0.00144   0.00000   0.00207   0.00206   2.04866
    A7        1.89454   0.00330   0.00000   0.00780   0.00776   1.90230
    A8        2.17828  -0.00668   0.00000  -0.00909  -0.00913   2.16915
    A9        2.12623   0.00338   0.00000   0.00818   0.00815   2.13438
   A10        2.03938   0.00054   0.00000   0.00117  -0.00854   2.03084
   A11        2.11262  -0.00326   0.00000  -0.00703  -0.01643   2.09619
   A12        2.13119   0.00271   0.00000   0.00585  -0.00354   2.12764
    D1        3.14159  -0.00055   0.00000  -0.00581  -0.00582   3.13578
    D2        0.00000   0.00021   0.00000   0.00303   0.00304   0.00304
    D3        0.00000  -0.00055   0.00000  -0.00581  -0.00582  -0.00582
    D4        3.14159   0.00021   0.00000   0.00302   0.00303  -3.13856
    D5        0.42588  -0.00125   0.00000  -0.02469  -0.02470   0.40118
    D6        3.14159   0.00001   0.00000  -0.00550  -0.00552   3.13608
    D7       -2.71572  -0.00200   0.00000  -0.03342  -0.03341  -2.74912
    D8        0.00000  -0.00074   0.00000  -0.01423  -0.01423  -0.01423
    D9        3.14159  -0.00432   0.00000  -0.08590  -0.08488   3.05672
   D10        0.00000   0.00924   0.00000   0.17974   0.17869   0.17869
   D11       -0.47907  -0.00339   0.00000  -0.06521  -0.06416  -0.54323
   D12        2.66252   0.01017   0.00000   0.20043   0.19941   2.86193
         Item               Value     Threshold  Converged?
 Maximum Force            0.022370     0.000450     NO 
 RMS     Force            0.007103     0.000300     NO 
 Maximum Displacement     0.209635     0.001800     NO 
 RMS     Displacement     0.058777     0.001200     NO 
 Predicted change in Energy=-6.061547D-03
 GradGradGradGradGradGradGradGradGradGradGradGradGradGradGradGradGradGrad

                          Input orientation:                          
 ---------------------------------------------------------------------
 Center     Atomic      Atomic             Coordinates (Angstroms)
 Number     Number       Type             X           Y           Z
 ---------------------------------------------------------------------
      1          6           0        2.251716    2.973451    0.007012
      2          6           0        1.962567    1.669854   -0.022742
      3          1           0       -1.049712    2.105637   -0.631569
      4          1           0       -2.200772   -2.079264    0.011678
      5          1           0        0.575839   -2.782595    0.110934
      6         50           0       -0.004413    0.913246   -0.036052
      7         50           0       -0.592633   -1.585458   -0.104714
      8         35           0        3.408719    0.387006   -0.040866
      9          9           0        3.525486    3.436676    0.021660
     10          1           0        1.507341    3.742127    0.021367
 ---------------------------------------------------------------------
                    Distance matrix (angstroms):
                    1          2          3          4          5
     1  C    0.000000
     2  C    1.335611   0.000000
     3  H    3.472797   3.103934   0.000000
     4  H    6.734582   5.602719   4.387722   0.000000
     5  H    5.995951   4.665317   5.204665   2.866024   0.000000
     6  Sn   3.055555   2.107521   1.693839   3.712328   3.744000
     7  Sn   5.374612   4.139182   3.756418   1.686268   1.686704
     8  Br   2.833839   1.933231   4.814586   6.127939   4.253777
     9  F    1.355463   2.359310   4.809450   7.950831   6.883873
    10  H    1.070123   2.122143   3.105309   6.902085   6.591488
                    6          7          8          9         10
     6  Sn   0.000000
     7  Sn   2.567925   0.000000
     8  Br   3.453465   4.461559   0.000000
     9  F    4.339495   6.495898   3.052545   0.000000
    10  H    3.208000   5.727909   3.856935   2.041129   0.000000
 Stoichiometry    C2H4BrFSn2
 Framework group  C1[X(C2H4BrFSn2)]
 Deg. of freedom    24
 Full point group                 C1      NOp   1
 Largest Abelian subgroup         C1      NOp   1
 Largest concise Abelian subgroup C1      NOp   1
                         Standard orientation:                         
 ---------------------------------------------------------------------
 Center     Atomic      Atomic             Coordinates (Angstroms)
 Number     Number       Type             X           Y           Z
 ---------------------------------------------------------------------
      1          6           0        2.762289   -1.267192   -0.011972
      2          6           0        1.715274   -0.438013   -0.003069
      3          1           0       -0.356638   -2.673385    0.584044
      4          1           0       -3.878934   -0.155765   -0.128084
      5          1           0       -2.166734    2.141078   -0.211596
      6         50           0       -0.288221   -1.091785   -0.018410
      7         50           0       -2.321667    0.476184    0.009973
      8         35           0        2.027859    1.469732    0.010460
      9          9           0        4.042937   -0.823111   -0.008438
     10          1           0        2.669817   -2.333261   -0.022449
 ---------------------------------------------------------------------
 Rotational constants (GHZ):      1.2971404      0.3524217      0.2772659
 Standard basis: LANL2DZ (5D, 7F)
 There are    59 symmetry adapted basis functions of A   symmetry.
 Integral buffers will be    131072 words long.
 Raffenetti 1 integral format.
 Two-electron integral symmetry is turned on.
    59 basis functions,   127 primitive gaussians,    59 cartesian basis functions
    20 alpha electrons       20 beta electrons
       nuclear repulsion energy       135.2537424089 Hartrees.
 NAtoms=   10 NActive=   10 NUniq=   10 SFac= 7.50D-01 NAtFMM=   80 NAOKFM=F Big=F
 One-electron integrals computed using PRISM.
   1 Symmetry operations used in ECPInt.
 ECPInt:  NShTT=     630 NPrTT=    3262 LenC2=     623 LenP2D=    2672.
 LDataN:  DoStor=T MaxTD1= 4 Len=   56
 NBasis=    59 RedAO= T  NBF=    59
 NBsUse=    59 1.00D-06 NBFU=    59
 Initial guess read from the read-write file.
 B after Tr=     0.000000    0.000000    0.000000
         Rot=    1.000000    0.000000    0.000000    0.000000 Ang=   0.00 deg.
 Initial guess orbital symmetries:
       Occupied  (A) (A) (A) (A) (A) (A) (A) (A) (A) (A) (A) (A)
                 (A) (A) (A) (A) (A) (A) (A) (A)
       Virtual   (A) (A) (A) (A) (A) (A) (A) (A) (A) (A) (A) (A)
                 (A) (A) (A) (A) (A) (A) (A) (A) (A) (A) (A) (A)
                 (A) (A) (A) (A) (A) (A) (A) (A) (A) (A) (A) (A)
                 (A) (A) (A)
 Harris functional with IExCor=  205 diagonalized for initial guess.
 ExpMin= 6.30D-02 ExpMax= 1.00D+04 ExpMxC= 3.50D+02 IAcc=2 IRadAn=         0 AccDes= 0.00D+00
 HarFok:  IExCor=  205 AccDes= 0.00D+00 IRadAn=         0 IDoV= 1
 ScaDFX=  1.000000  1.000000  1.000000  1.000000
 Defaulting to unpruned grid for atomic number  50.
 Defaulting to unpruned grid for atomic number  50.
 Defaulting to unpruned grid for atomic number  50.
 Defaulting to unpruned grid for atomic number  50.
 Defaulting to unpruned grid for atomic number  50.
 Defaulting to unpruned grid for atomic number  50.
 Defaulting to unpruned grid for atomic number  50.
 Defaulting to unpruned grid for atomic number  50.
 Defaulting to unpruned grid for atomic number  50.
 Defaulting to unpruned grid for atomic number  50.
 Defaulting to unpruned grid for atomic number  50.
 Defaulting to unpruned grid for atomic number  50.
 Defaulting to unpruned grid for atomic number  50.
 Defaulting to unpruned grid for atomic number  50.
 Defaulting to unpruned grid for atomic number  50.
 Defaulting to unpruned grid for atomic number  50.
 Defaulting to unpruned grid for atomic number  50.
 Defaulting to unpruned grid for atomic number  50.
 Defaulting to unpruned grid for atomic number  50.
 Defaulting to unpruned grid for atomic number  50.
 Defaulting to unpruned grid for atomic number  50.
 Defaulting to unpruned grid for atomic number  50.
 Defaulting to unpruned grid for atomic number  50.
 Defaulting to unpruned grid for atomic number  50.
 FoFCou: FMM=F IPFlag=           0 FMFlag=      100000 FMFlg1=           0
         NFxFlg=           0 DoJE=T BraDBF=F KetDBF=T FulRan=T
         Omega=  0.000000  0.000000  1.000000  0.000000  0.000000 ICntrl=     500 IOpCl=  0
         NMat0=    1 NMatS0=    1 NMatT0=    0 NMatD0=    1 NMtDS0=    0 NMtDT0=    0
         I1Cent=           4 NGrid=           0.
 Petite list used in FoFCou.
 Requested convergence on RMS density matrix=1.00D-08 within 128 cycles.
 Requested convergence on MAX density matrix=1.00D-06.
 Requested convergence on             energy=1.00D-06.
 No special actions if energy rises.
 Keep R1 ints in memory in canonical form, NReq=2397822.
 SCF Done:  E(RHF) =  -196.767444839     A.U. after   13 cycles
             Convg  =    0.3538D-08             -V/T =  2.0705
   1 Symmetry operations used in ECPInt.
 ECPInt:  NShTT=     630 NPrTT=    3262 LenC2=     623 LenP2D=    2672.
 LDataN:  DoStor=T MaxTD1= 5 Len=  102
 Calling FoFJK, ICntrl=      2127 FMM=F ISym2X=0 I1Cent= 0 IOpClX= 0 NMat=1 NMatS=1 NMatT=0.
 ***** Axes restored to original set *****
 -------------------------------------------------------------------
 Center     Atomic                   Forces (Hartrees/Bohr)
 Number     Number              X              Y              Z
 -------------------------------------------------------------------
      1        6          -0.014578644   -0.023187013   -0.001011392
      2        6          -0.001222736    0.016995568   -0.003779563
      3        1          -0.000246216    0.000621039    0.000453238
      4        1          -0.000477589    0.000881094    0.002833304
      5        1          -0.000736708   -0.000023390    0.005839267
      6       50          -0.005996357    0.004437400    0.007919049
      7       50           0.002754629   -0.004894045   -0.013475874
      8       35           0.008664497   -0.008257419    0.000702669
      9        9           0.008299562    0.009364940    0.000860849
     10        1           0.003539564    0.004061825   -0.000341548
 -------------------------------------------------------------------
 Cartesian Forces:  Max     0.023187013 RMS     0.007663484

 GradGradGradGradGradGradGradGradGradGradGradGradGradGradGradGradGradGrad
 Berny optimization.
 Using GEDIIS/GDIIS optimizer.
 Internal  Forces:  Max     0.011954316 RMS     0.004814421
 Search for a local minimum.
 Step number   2 out of a maximum of   43
 All quantities printed in internal units (Hartrees-Bohrs-Radians)
 Mixed Optimization -- RFO/linear search
 Update second derivatives using D2CorX and points    1    2
 DE= -5.77D-03 DEPred=-6.06D-03 R= 9.52D-01
 SS=  1.41D+00  RLast= 2.99D-01 DXNew= 5.0454D-01 8.9586D-01
 Trust test= 9.52D-01 RLast= 2.99D-01 DXMaxT set to 5.05D-01
 Use linear search instead of GDIIS.
 Linear search step of   0.597 exceeds DXMaxT=   0.505 but not scaled.
 Quartic linear search produced a step of  2.00000.
 Iteration  1 RMS(Cart)=  0.07309618 RMS(Int)=  0.04635122
 Iteration  2 RMS(Cart)=  0.06426118 RMS(Int)=  0.01802230
 Iteration  3 RMS(Cart)=  0.00479250 RMS(Int)=  0.01742920
 Iteration  4 RMS(Cart)=  0.00022136 RMS(Int)=  0.01742878
 Iteration  5 RMS(Cart)=  0.00001576 RMS(Int)=  0.01742878
 Iteration  6 RMS(Cart)=  0.00000115 RMS(Int)=  0.01742878
 Iteration  7 RMS(Cart)=  0.00000008 RMS(Int)=  0.01742878
 Variable       Old X    -DE/DX   Delta X   Delta X   Delta X     New X
                                 (Linear)    (Quad)   (Total)
    R1        2.52394  -0.01013  -0.01801   0.00000  -0.01801   2.50593
    R2        2.56145   0.01101   0.02065   0.00000   0.02065   2.58210
    R3        2.02224   0.00045   0.00046   0.00000   0.00046   2.02270
    R4        3.98264   0.00400   0.02766   0.00000   0.02766   4.01030
    R5        3.65328   0.01195   0.08780   0.00000   0.08780   3.74108
    R6        3.20089   0.00043   0.00111   0.00000   0.00111   3.20200
    R7        3.18658   0.00039  -0.00270   0.00000  -0.00270   3.18389
    R8        3.18741   0.00025  -0.00295   0.00000  -0.00295   3.18446
    R9        4.85267   0.00370   0.01014   0.00000   0.01014   4.86282
    A1        2.13796   0.00659   0.03552   0.00000   0.03552   2.17348
    A2        2.15411   0.00212   0.01563   0.00000   0.01563   2.16975
    A3        1.99111  -0.00872  -0.05115   0.00000  -0.05115   1.93996
    A4        2.15627  -0.00342  -0.02089   0.00000  -0.02095   2.13532
    A5        2.07823   0.00247   0.01671   0.00000   0.01664   2.09487
    A6        2.04866   0.00094   0.00411   0.00000   0.00405   2.05270
    A7        1.90230   0.00141   0.01551   0.00000   0.01526   1.91755
    A8        2.16915  -0.00522  -0.01826   0.00000  -0.01849   2.15066
    A9        2.13438   0.00260   0.01630   0.00000   0.01608   2.15047
   A10        2.03084   0.00051  -0.01707   0.00000  -0.08064   1.95020
   A11        2.09619  -0.00326  -0.03287   0.00000  -0.08141   2.01478
   A12        2.12764   0.00013  -0.00708   0.00000  -0.05454   2.07310
    D1        3.13578  -0.00110  -0.01163   0.00000  -0.01168   3.12409
    D2        0.00304  -0.00025   0.00607   0.00000   0.00612   0.00916
    D3       -0.00582  -0.00080  -0.01164   0.00000  -0.01169  -0.01751
    D4       -3.13856   0.00005   0.00606   0.00000   0.00611  -3.13245
    D5        0.40118   0.00047  -0.04939   0.00000  -0.04941   0.35178
    D6        3.13608  -0.00169  -0.01103   0.00000  -0.01111   3.12496
    D7       -2.74912  -0.00036  -0.06682   0.00000  -0.06674  -2.81586
    D8       -0.01423  -0.00252  -0.02846   0.00000  -0.02844  -0.04267
    D9        3.05672  -0.00231  -0.16975   0.00000  -0.15128   2.90543
   D10        0.17869   0.00953   0.35738   0.00000   0.33878   0.51747
   D11       -0.54323  -0.00535  -0.12832   0.00000  -0.10972  -0.65295
   D12        2.86193   0.00649   0.39881   0.00000   0.38035  -3.04091
         Item               Value     Threshold  Converged?
 Maximum Force            0.011954     0.000450     NO 
 RMS     Force            0.004814     0.000300     NO 
 Maximum Displacement     0.393181     0.001800     NO 
 RMS     Displacement     0.117738     0.001200     NO 
 Predicted change in Energy=-5.995538D-03
 GradGradGradGradGradGradGradGradGradGradGradGradGradGradGradGradGradGrad

                          Input orientation:                          
 ---------------------------------------------------------------------
 Center     Atomic      Atomic             Coordinates (Angstroms)
 Number     Number       Type             X           Y           Z
 ---------------------------------------------------------------------
      1          6           0        2.239360    2.947340    0.019139
      2          6           0        1.975042    1.650721   -0.066942
      3          1           0       -1.082253    2.123368   -0.565222
      4          1           0       -2.155528   -2.028404    0.035294
      5          1           0        0.528717   -2.732563    0.318996
      6         50           0       -0.008145    0.896348   -0.105015
      7         50           0       -0.560033   -1.608941   -0.306949
      8         35           0        3.456846    0.338982   -0.119723
      9          9           0        3.496749    3.480002    0.066702
     10          1           0        1.493384    3.713828    0.060429
 ---------------------------------------------------------------------
                    Distance matrix (angstroms):
                    1          2          3          4          5
     1  C    0.000000
     2  C    1.326082   0.000000
     3  H    3.471817   3.133485   0.000000
     4  H    6.638775   5.532452   4.330098   0.000000
     5  H    5.939487   4.631844   5.192026   2.789534   0.000000
     6  Sn   3.045203   2.122159   1.694424   3.631131   3.692831
     7  Sn   5.357483   4.136375   3.777505   1.684840   1.685144
     8  Br   2.881854   1.979694   4.897542   6.093217   4.266240
     9  F    1.366389   2.383218   4.817369   7.892514   6.889763
    10  H    1.070369   2.122411   3.091101   6.803560   6.523296
                    6          7          8          9         10
     6  Sn   0.000000
     7  Sn   2.573291   0.000000
     8  Br   3.509563   4.468195   0.000000
     9  F    4.357642   6.518775   3.146800   0.000000
    10  H    3.196898   5.716935   3.908608   2.016975   0.000000
 Stoichiometry    C2H4BrFSn2
 Framework group  C1[X(C2H4BrFSn2)]
 Deg. of freedom    24
 Full point group                 C1      NOp   1
 Largest Abelian subgroup         C1      NOp   1
 Largest concise Abelian subgroup C1      NOp   1
                         Standard orientation:                         
 ---------------------------------------------------------------------
 Center     Atomic      Atomic             Coordinates (Angstroms)
 Number     Number       Type             X           Y           Z
 ---------------------------------------------------------------------
      1          6           0       -2.739957   -1.285217    0.002483
      2          6           0       -1.714581   -0.444383   -0.007430
      3          1           0        0.381749   -2.723242   -0.487977
      4          1           0        3.800549   -0.204203    0.358189
      5          1           0        2.149195    2.025951    0.642699
      6         50           0        0.300137   -1.110295    0.024676
      7         50           0        2.314916    0.489569   -0.029446
      8         35           0       -2.035344    1.509151   -0.007960
      9          9           0       -4.052654   -0.905948    0.002481
     10          1           0       -2.645980   -2.351414    0.011529
 ---------------------------------------------------------------------
 Rotational constants (GHZ):      1.2358944      0.3526159      0.2746192
 Standard basis: LANL2DZ (5D, 7F)
 There are    59 symmetry adapted basis functions of A   symmetry.
 Integral buffers will be    131072 words long.
 Raffenetti 1 integral format.
 Two-electron integral symmetry is turned on.
    59 basis functions,   127 primitive gaussians,    59 cartesian basis functions
    20 alpha electrons       20 beta electrons
       nuclear repulsion energy       134.2626681759 Hartrees.
 NAtoms=   10 NActive=   10 NUniq=   10 SFac= 7.50D-01 NAtFMM=   80 NAOKFM=F Big=F
 One-electron integrals computed using PRISM.
   1 Symmetry operations used in ECPInt.
 ECPInt:  NShTT=     630 NPrTT=    3262 LenC2=     623 LenP2D=    2671.
 LDataN:  DoStor=T MaxTD1= 4 Len=   56
 NBasis=    59 RedAO= T  NBF=    59
 NBsUse=    59 1.00D-06 NBFU=    59
 Initial guess read from the read-write file.
 B after Tr=     0.000000    0.000000    0.000000
         Rot=    1.000000    0.000000    0.000000    0.000000 Ang=   0.00 deg.
 Initial guess orbital symmetries:
       Occupied  (A) (A) (A) (A) (A) (A) (A) (A) (A) (A) (A) (A)
                 (A) (A) (A) (A) (A) (A) (A) (A)
       Virtual   (A) (A) (A) (A) (A) (A) (A) (A) (A) (A) (A) (A)
                 (A) (A) (A) (A) (A) (A) (A) (A) (A) (A) (A) (A)
                 (A) (A) (A) (A) (A) (A) (A) (A) (A) (A) (A) (A)
                 (A) (A) (A)
 Harris functional with IExCor=  205 diagonalized for initial guess.
 ExpMin= 6.30D-02 ExpMax= 1.00D+04 ExpMxC= 3.50D+02 IAcc=2 IRadAn=         0 AccDes= 0.00D+00
 HarFok:  IExCor=  205 AccDes= 0.00D+00 IRadAn=         0 IDoV= 1
 ScaDFX=  1.000000  1.000000  1.000000  1.000000
 Defaulting to unpruned grid for atomic number  50.
 Defaulting to unpruned grid for atomic number  50.
 Defaulting to unpruned grid for atomic number  50.
 Defaulting to unpruned grid for atomic number  50.
 Defaulting to unpruned grid for atomic number  50.
 Defaulting to unpruned grid for atomic number  50.
 Defaulting to unpruned grid for atomic number  50.
 Defaulting to unpruned grid for atomic number  50.
 Defaulting to unpruned grid for atomic number  50.
 Defaulting to unpruned grid for atomic number  50.
 Defaulting to unpruned grid for atomic number  50.
 Defaulting to unpruned grid for atomic number  50.
 Defaulting to unpruned grid for atomic number  50.
 Defaulting to unpruned grid for atomic number  50.
 Defaulting to unpruned grid for atomic number  50.
 Defaulting to unpruned grid for atomic number  50.
 Defaulting to unpruned grid for atomic number  50.
 Defaulting to unpruned grid for atomic number  50.
 Defaulting to unpruned grid for atomic number  50.
 Defaulting to unpruned grid for atomic number  50.
 Defaulting to unpruned grid for atomic number  50.
 Defaulting to unpruned grid for atomic number  50.
 Defaulting to unpruned grid for atomic number  50.
 Defaulting to unpruned grid for atomic number  50.
 FoFCou: FMM=F IPFlag=           0 FMFlag=      100000 FMFlg1=           0
         NFxFlg=           0 DoJE=T BraDBF=F KetDBF=T FulRan=T
         Omega=  0.000000  0.000000  1.000000  0.000000  0.000000 ICntrl=     500 IOpCl=  0
         NMat0=    1 NMatS0=    1 NMatT0=    0 NMatD0=    1 NMtDS0=    0 NMtDT0=    0
         I1Cent=           4 NGrid=           0.
 Petite list used in FoFCou.
 Requested convergence on RMS density matrix=1.00D-08 within 128 cycles.
 Requested convergence on MAX density matrix=1.00D-06.
 Requested convergence on             energy=1.00D-06.
 No special actions if energy rises.
 Keep R1 ints in memory in canonical form, NReq=2397822.
 SCF Done:  E(RHF) =  -196.773610209     A.U. after   16 cycles
             Convg  =    0.4765D-08             -V/T =  2.0707
   1 Symmetry operations used in ECPInt.
 ECPInt:  NShTT=     630 NPrTT=    3262 LenC2=     623 LenP2D=    2671.
 LDataN:  DoStor=T MaxTD1= 5 Len=  102
 Calling FoFJK, ICntrl=      2127 FMM=F ISym2X=0 I1Cent= 0 IOpClX= 0 NMat=1 NMatS=1 NMatT=0.
 ***** Axes restored to original set *****
 -------------------------------------------------------------------
 Center     Atomic                   Forces (Hartrees/Bohr)
 Number     Number              X              Y              Z
 -------------------------------------------------------------------
      1        6          -0.001368420   -0.002949305   -0.001105620
      2        6           0.002932839   -0.001025108   -0.006282658
      3        1           0.001855184    0.002203823   -0.004448460
      4        1          -0.003681046    0.000501967    0.002208895
      5        1           0.001810968   -0.000814805    0.003341281
      6       50          -0.000903062    0.006732082    0.017404674
      7       50           0.000836860   -0.011027986   -0.012362788
      8       35          -0.004207982    0.004686446    0.000699517
      9        9           0.002805586    0.000411005    0.001373387
     10        1          -0.000080927    0.001281881   -0.000828229
 -------------------------------------------------------------------
 Cartesian Forces:  Max     0.017404674 RMS     0.005162137

 GradGradGradGradGradGradGradGradGradGradGradGradGradGradGradGradGradGrad
 Berny optimization.
 Using GEDIIS/GDIIS optimizer.
 Internal  Forces:  Max     0.011797325 RMS     0.003779208
 Search for a local minimum.
 Step number   3 out of a maximum of   43
 All quantities printed in internal units (Hartrees-Bohrs-Radians)
 Mixed Optimization -- RFO/linear search
 Update second derivatives using D2CorX and points    2    3
 Use linear search instead of GDIIS.
     Eigenvalues ---    0.00227   0.00258   0.00874   0.01578   0.01761
     Eigenvalues ---    0.02875   0.02878   0.10295   0.13029   0.13167
     Eigenvalues ---    0.13276   0.13987   0.14877   0.15683   0.16007
     Eigenvalues ---    0.16196   0.20059   0.22093   0.22497   0.24997
     Eigenvalues ---    0.26626   0.37239   0.53010   0.566811000.00000
     Eigenvalues --- 1000.000001000.000001000.000001000.000001000.00000
     Eigenvalues --- 1000.000001000.000001000.00000
 RFO step:  Lambda=-1.00836137D-02 EMin= 2.27053070D-03
 Quartic linear search produced a step of  0.29037.
 Maximum step size (   0.505) exceeded in Quadratic search.
    -- Step size scaled by   0.759
 Iteration  1 RMS(Cart)=  0.08030516 RMS(Int)=  0.02987395
 Iteration  2 RMS(Cart)=  0.04019315 RMS(Int)=  0.00844472
 Iteration  3 RMS(Cart)=  0.00211541 RMS(Int)=  0.00831781
 Iteration  4 RMS(Cart)=  0.00004280 RMS(Int)=  0.00831778
 Iteration  5 RMS(Cart)=  0.00000145 RMS(Int)=  0.00831778
 Iteration  6 RMS(Cart)=  0.00000005 RMS(Int)=  0.00831778
 Variable       Old X    -DE/DX   Delta X   Delta X   Delta X     New X
                                 (Linear)    (Quad)   (Total)
    R1        2.50593  -0.00099  -0.00523  -0.01287  -0.01810   2.48783
    R2        2.58210   0.00279   0.00600   0.01716   0.02316   2.60526
    R3        2.02270   0.00094   0.00013   0.00196   0.00210   2.02480
    R4        4.01030   0.00082   0.00803   0.02148   0.02951   4.03981
    R5        3.74108  -0.00627   0.02549   0.03611   0.06160   3.80268
    R6        3.20200   0.00163   0.00032   0.00893   0.00925   3.21125
    R7        3.18389   0.00381  -0.00078   0.01708   0.01630   3.20018
    R8        3.18446   0.00295  -0.00086   0.01259   0.01174   3.19620
    R9        4.86282   0.01180   0.00294   0.07279   0.07574   4.93855
    A1        2.17348  -0.00164   0.01031   0.01873   0.02903   2.20251
    A2        2.16975   0.00162   0.00454   0.01529   0.01982   2.18957
    A3        1.93996   0.00002  -0.01485  -0.03402  -0.04889   1.89107
    A4        2.13532   0.00389  -0.00608  -0.00412  -0.01039   2.12493
    A5        2.09487  -0.00332   0.00483   0.00267   0.00731   2.10219
    A6        2.05270  -0.00059   0.00118   0.00080   0.00180   2.05450
    A7        1.91755  -0.00431   0.00443  -0.04769  -0.05672   1.86084
    A8        2.15066  -0.00097  -0.00537  -0.03840  -0.05578   2.09488
    A9        2.15047   0.00268   0.00467  -0.01625  -0.02647   2.12400
   A10        1.95020   0.00196  -0.02342  -0.01752  -0.06841   1.88179
   A11        2.01478  -0.00382  -0.02364  -0.04742  -0.08759   1.92719
   A12        2.07310  -0.00318  -0.01584  -0.02659  -0.05779   2.01531
    D1        3.12409  -0.00182  -0.00339  -0.03946  -0.04288   3.08121
    D2        0.00916  -0.00098   0.00178  -0.00978  -0.00797   0.00119
    D3       -0.01751  -0.00118  -0.00339  -0.02921  -0.03265  -0.05016
    D4       -3.13245  -0.00034   0.00177   0.00046   0.00227  -3.13018
    D5        0.35178   0.00268  -0.01435   0.09148   0.07379   0.42557
    D6        3.12496  -0.00390  -0.00323  -0.19156  -0.19152   2.93344
    D7       -2.81586   0.00181  -0.01938   0.06252   0.03988  -2.77598
    D8       -0.04267  -0.00477  -0.00826  -0.22052  -0.22544  -0.26811
    D9        2.90543   0.00225  -0.04393   0.16016   0.12540   3.03083
   D10        0.51747   0.00796   0.09837   0.28634   0.37332   0.89079
   D11       -0.65295  -0.00677  -0.03186  -0.16737  -0.18784  -0.84078
   D12       -3.04091  -0.00106   0.11044  -0.04118   0.06008  -2.98083
         Item               Value     Threshold  Converged?
 Maximum Force            0.011797     0.000450     NO 
 RMS     Force            0.003779     0.000300     NO 
 Maximum Displacement     0.358669     0.001800     NO 
 RMS     Displacement     0.108492     0.001200     NO 
 Predicted change in Energy=-5.710726D-03
 GradGradGradGradGradGradGradGradGradGradGradGradGradGradGradGradGradGrad

                          Input orientation:                          
 ---------------------------------------------------------------------
 Center     Atomic      Atomic             Coordinates (Angstroms)
 Number     Number       Type             X           Y           Z
 ---------------------------------------------------------------------
      1          6           0        2.224684    2.936395   -0.020499
      2          6           0        1.969466    1.645031   -0.041157
      3          1           0       -1.049650    2.126863   -0.475216
      4          1           0       -2.125076   -1.999530   -0.086683
      5          1           0        0.463370   -2.735599    0.402824
      6         50           0       -0.026852    0.890752    0.084784
      7         50           0       -0.508361   -1.626622   -0.425783
      8         35           0        3.473505    0.308981   -0.087527
      9          9           0        3.473860    3.519623   -0.028525
     10          1           0        1.489192    3.714786    0.014489
 ---------------------------------------------------------------------
                    Distance matrix (angstroms):
                    1          2          3          4          5
     1  C    0.000000
     2  C    1.316504   0.000000
     3  H    3.403435   3.087982   0.000000
     4  H    6.579373   5.481804   4.281895   0.000000
     5  H    5.954238   4.653533   5.167564   2.735227   0.000000
     6  Sn   3.043871   2.137775   1.699319   3.575707   3.673131
     7  Sn   5.334315   4.122048   3.792636   1.693464   1.691354
     8  Br   2.909872   2.012291   4.890187   6.055852   4.309388
     9  F    1.378644   2.403633   4.754099   7.862094   6.955351
    10  H    1.071478   2.125475   3.034309   6.762144   6.542980
                    6          7          8          9         10
     6  Sn   0.000000
     7  Sn   2.613370   0.000000
     8  Br   3.552555   4.440296   0.000000
     9  F    4.379358   6.519182   3.211184   0.000000
    10  H    3.206010   5.719677   3.943021   1.994704   0.000000
 Stoichiometry    C2H4BrFSn2
 Framework group  C1[X(C2H4BrFSn2)]
 Deg. of freedom    24
 Full point group                 C1      NOp   1
 Largest Abelian subgroup         C1      NOp   1
 Largest concise Abelian subgroup C1      NOp   1
                         Standard orientation:                         
 ---------------------------------------------------------------------
 Center     Atomic      Atomic             Coordinates (Angstroms)
 Number     Number       Type             X           Y           Z
 ---------------------------------------------------------------------
      1          6           0       -2.727515   -1.268605   -0.172007
      2          6           0       -1.708962   -0.442739   -0.055048
      3          1           0        0.334514   -2.699208   -0.572909
      4          1           0        3.761557   -0.267481    0.249708
      5          1           0        2.207748    1.903284    0.845465
      6         50           0        0.299141   -1.152315    0.129627
      7         50           0        2.300966    0.510553   -0.109675
      8         35           0       -2.014288    1.542863    0.061037
      9          9           0       -4.059084   -0.916042   -0.229302
     10          1           0       -2.658446   -2.336273   -0.230127
 ---------------------------------------------------------------------
 Rotational constants (GHZ):      1.1613913      0.3549033      0.2736361
 Standard basis: LANL2DZ (5D, 7F)
 There are    59 symmetry adapted basis functions of A   symmetry.
 Integral buffers will be    131072 words long.
 Raffenetti 1 integral format.
 Two-electron integral symmetry is turned on.
    59 basis functions,   127 primitive gaussians,    59 cartesian basis functions
    20 alpha electrons       20 beta electrons
       nuclear repulsion energy       133.5461241212 Hartrees.
 NAtoms=   10 NActive=   10 NUniq=   10 SFac= 7.50D-01 NAtFMM=   80 NAOKFM=F Big=F
 One-electron integrals computed using PRISM.
   1 Symmetry operations used in ECPInt.
 ECPInt:  NShTT=     630 NPrTT=    3262 LenC2=     623 LenP2D=    2673.
 LDataN:  DoStor=T MaxTD1= 4 Len=   56
 NBasis=    59 RedAO= T  NBF=    59
 NBsUse=    59 1.00D-06 NBFU=    59
 Initial guess read from the read-write file.
 B after Tr=     0.000000    0.000000    0.000000
         Rot=    1.000000    0.000000    0.000000    0.000000 Ang=   0.00 deg.
 Initial guess orbital symmetries:
       Occupied  (A) (A) (A) (A) (A) (A) (A) (A) (A) (A) (A) (A)
                 (A) (A) (A) (A) (A) (A) (A) (A)
       Virtual   (A) (A) (A) (A) (A) (A) (A) (A) (A) (A) (A) (A)
                 (A) (A) (A) (A) (A) (A) (A) (A) (A) (A) (A) (A)
                 (A) (A) (A) (A) (A) (A) (A) (A) (A) (A) (A) (A)
                 (A) (A) (A)
 Harris functional with IExCor=  205 diagonalized for initial guess.
 ExpMin= 6.30D-02 ExpMax= 1.00D+04 ExpMxC= 3.50D+02 IAcc=2 IRadAn=         0 AccDes= 0.00D+00
 HarFok:  IExCor=  205 AccDes= 0.00D+00 IRadAn=         0 IDoV= 1
 ScaDFX=  1.000000  1.000000  1.000000  1.000000
 Defaulting to unpruned grid for atomic number  50.
 Defaulting to unpruned grid for atomic number  50.
 Defaulting to unpruned grid for atomic number  50.
 Defaulting to unpruned grid for atomic number  50.
 Defaulting to unpruned grid for atomic number  50.
 Defaulting to unpruned grid for atomic number  50.
 Defaulting to unpruned grid for atomic number  50.
 Defaulting to unpruned grid for atomic number  50.
 Defaulting to unpruned grid for atomic number  50.
 Defaulting to unpruned grid for atomic number  50.
 Defaulting to unpruned grid for atomic number  50.
 Defaulting to unpruned grid for atomic number  50.
 Defaulting to unpruned grid for atomic number  50.
 Defaulting to unpruned grid for atomic number  50.
 Defaulting to unpruned grid for atomic number  50.
 Defaulting to unpruned grid for atomic number  50.
 Defaulting to unpruned grid for atomic number  50.
 Defaulting to unpruned grid for atomic number  50.
 Defaulting to unpruned grid for atomic number  50.
 Defaulting to unpruned grid for atomic number  50.
 Defaulting to unpruned grid for atomic number  50.
 Defaulting to unpruned grid for atomic number  50.
 Defaulting to unpruned grid for atomic number  50.
 Defaulting to unpruned grid for atomic number  50.
 FoFCou: FMM=F IPFlag=           0 FMFlag=      100000 FMFlg1=           0
         NFxFlg=           0 DoJE=T BraDBF=F KetDBF=T FulRan=T
         Omega=  0.000000  0.000000  1.000000  0.000000  0.000000 ICntrl=     500 IOpCl=  0
         NMat0=    1 NMatS0=    1 NMatT0=    0 NMatD0=    1 NMtDS0=    0 NMtDT0=    0
         I1Cent=           4 NGrid=           0.
 Petite list used in FoFCou.
 Requested convergence on RMS density matrix=1.00D-08 within 128 cycles.
 Requested convergence on MAX density matrix=1.00D-06.
 Requested convergence on             energy=1.00D-06.
 No special actions if energy rises.
 Keep R1 ints in memory in canonical form, NReq=2397822.
 SCF Done:  E(RHF) =  -196.780025003     A.U. after   13 cycles
             Convg  =    0.4486D-08             -V/T =  2.0709
   1 Symmetry operations used in ECPInt.
 ECPInt:  NShTT=     630 NPrTT=    3262 LenC2=     623 LenP2D=    2673.
 LDataN:  DoStor=T MaxTD1= 5 Len=  102
 Calling FoFJK, ICntrl=      2127 FMM=F ISym2X=0 I1Cent= 0 IOpClX= 0 NMat=1 NMatS=1 NMatT=0.
 ***** Axes restored to original set *****
 -------------------------------------------------------------------
 Center     Atomic                   Forces (Hartrees/Bohr)
 Number     Number              X              Y              Z
 -------------------------------------------------------------------
      1        6           0.008820764    0.018438728    0.000216165
      2        6           0.004683639   -0.016840134   -0.003212898
      3        1           0.001411836    0.003626898   -0.004086330
      4        1          -0.004476199   -0.000977433    0.002624914
      5        1           0.002073475   -0.002120765    0.002762245
      6       50           0.003100523    0.006759952    0.013965096
      7       50          -0.000068792   -0.011165148   -0.012040544
      8       35          -0.011096382    0.011756607    0.000794543
      9        9          -0.001205016   -0.007213580    0.000152779
     10        1          -0.003243848   -0.002265125   -0.001175970
 -------------------------------------------------------------------
 Cartesian Forces:  Max     0.018438728 RMS     0.007443887

 GradGradGradGradGradGradGradGradGradGradGradGradGradGradGradGradGradGrad
 Berny optimization.
 Using GEDIIS/GDIIS optimizer.
 Internal  Forces:  Max     0.016117777 RMS     0.005543629
 Search for a local minimum.
 Step number   4 out of a maximum of   43
 All quantities printed in internal units (Hartrees-Bohrs-Radians)
 Mixed Optimization -- RFO/linear search
 Update second derivatives using D2CorX and points    3    4
 DE= -6.41D-03 DEPred=-5.71D-03 R= 1.12D+00
 SS=  1.41D+00  RLast= 5.74D-01 DXNew= 8.4853D-01 1.7228D+00
 Trust test= 1.12D+00 RLast= 5.74D-01 DXMaxT set to 8.49D-01
 Use linear search instead of GDIIS.
     Eigenvalues ---    0.00209   0.00326   0.00953   0.01612   0.02278
     Eigenvalues ---    0.02886   0.02941   0.10043   0.13019   0.13198
     Eigenvalues ---    0.13276   0.13908   0.14146   0.15874   0.16165
     Eigenvalues ---    0.16367   0.19746   0.22369   0.23535   0.24978
     Eigenvalues ---    0.27685   0.37227   0.54599   0.596231000.00000
     Eigenvalues --- 1000.000001000.000001000.000001000.000001000.00000
     Eigenvalues --- 1000.000001000.000001000.00000
 RFO step:  Lambda=-6.92297323D-03 EMin= 2.09456668D-03
 Quartic linear search produced a step of  0.48642.
 Iteration  1 RMS(Cart)=  0.10592696 RMS(Int)=  0.02940994
 Iteration  2 RMS(Cart)=  0.04063307 RMS(Int)=  0.00904222
 Iteration  3 RMS(Cart)=  0.00158247 RMS(Int)=  0.00899758
 Iteration  4 RMS(Cart)=  0.00002859 RMS(Int)=  0.00899757
 Iteration  5 RMS(Cart)=  0.00000087 RMS(Int)=  0.00899757
 Variable       Old X    -DE/DX   Delta X   Delta X   Delta X     New X
                                 (Linear)    (Quad)   (Total)
    R1        2.48783   0.00962  -0.00880   0.00885   0.00005   2.48788
    R2        2.60526  -0.00414   0.01126   0.00381   0.01508   2.62034
    R3        2.02480   0.00054   0.00102   0.00195   0.00296   2.02776
    R4        4.03981  -0.00035   0.01435   0.01343   0.02778   4.06759
    R5        3.80268  -0.01612   0.02996  -0.05156  -0.02160   3.78108
    R6        3.21125   0.00314   0.00450   0.02718   0.03168   3.24293
    R7        3.20018   0.00501   0.00793   0.03920   0.04712   3.24731
    R8        3.19620   0.00394   0.00571   0.03041   0.03612   3.23231
    R9        4.93855   0.01549   0.03684   0.15084   0.18768   5.12623
    A1        2.20251  -0.00782   0.01412  -0.01992  -0.00586   2.19665
    A2        2.18957  -0.00005   0.00964   0.00111   0.01068   2.20025
    A3        1.89107   0.00787  -0.02378   0.01901  -0.00484   1.88623
    A4        2.12493   0.00778  -0.00505   0.02350   0.01834   2.14326
    A5        2.10219  -0.00650   0.00356  -0.02014  -0.01669   2.08549
    A6        2.05450  -0.00128   0.00088  -0.00323  -0.00246   2.05204
    A7        1.86084  -0.00548  -0.02759  -0.05451  -0.10274   1.75809
    A8        2.09488   0.00091  -0.02713  -0.02917  -0.07177   2.02311
    A9        2.12400   0.00144  -0.01287  -0.00476  -0.04224   2.08176
   A10        1.88179  -0.00018  -0.03328  -0.05726  -0.11403   1.76776
   A11        1.92719  -0.00180  -0.04261  -0.05303  -0.10577   1.82141
   A12        2.01531  -0.00212  -0.02811  -0.03841  -0.07471   1.94061
    D1        3.08121  -0.00030  -0.02086   0.00008  -0.02077   3.06045
    D2        0.00119  -0.00032  -0.00388  -0.00236  -0.00625  -0.00506
    D3       -0.05016  -0.00096  -0.01588  -0.02732  -0.04318  -0.09334
    D4       -3.13018  -0.00098   0.00110  -0.02976  -0.02867   3.12434
    D5        0.42557   0.00079   0.03590  -0.03508  -0.00659   0.41898
    D6        2.93344  -0.00312  -0.09316  -0.15632  -0.24205   2.69139
    D7       -2.77598   0.00061   0.01940  -0.03332  -0.02135  -2.79733
    D8       -0.26811  -0.00329  -0.10966  -0.15455  -0.25680  -0.52491
    D9        3.03083   0.00123   0.06100  -0.04539   0.02284   3.05368
   D10        0.89079   0.00450   0.18159   0.10241   0.27070   1.16149
   D11       -0.84078  -0.00579  -0.09137  -0.20497  -0.28304  -1.12383
   D12       -2.98083  -0.00252   0.02923  -0.05718  -0.03519  -3.01602
         Item               Value     Threshold  Converged?
 Maximum Force            0.016118     0.000450     NO 
 RMS     Force            0.005544     0.000300     NO 
 Maximum Displacement     0.393971     0.001800     NO 
 RMS     Displacement     0.135204     0.001200     NO 
 Predicted change in Energy=-6.491238D-03
 GradGradGradGradGradGradGradGradGradGradGradGradGradGradGradGradGradGrad

                          Input orientation:                          
 ---------------------------------------------------------------------
 Center     Atomic      Atomic             Coordinates (Angstroms)
 Number     Number       Type             X           Y           Z
 ---------------------------------------------------------------------
      1          6           0        2.207153    2.936188   -0.071882
      2          6           0        1.944680    1.650138    0.030266
      3          1           0       -0.975078    2.168814   -0.369321
      4          1           0       -2.085152   -2.000246   -0.105997
      5          1           0        0.408680   -2.779696    0.343731
      6         50           0       -0.049730    0.884427    0.293264
      7         50           0       -0.473401   -1.646684   -0.585739
      8         35           0        3.453903    0.337159    0.072478
      9          9           0        3.469829    3.503695   -0.151312
     10          1           0        1.483254    3.726884   -0.118780
 ---------------------------------------------------------------------
                    Distance matrix (angstroms):
                    1          2          3          4          5
     1  C    0.000000
     2  C    1.316530   0.000000
     3  H    3.286933   2.992270   0.000000
     4  H    6.541669   5.439065   4.322346   0.000000
     5  H    6.006544   4.699041   5.187579   2.651225   0.000000
     6  Sn   3.071902   2.152477   1.716082   3.552983   3.693031
     7  Sn   5.334055   4.134685   3.854419   1.718400   1.710467
     8  Br   2.886204   2.000862   4.813109   6.014686   4.365976
     9  F    1.386622   2.407222   4.646141   7.820053   7.006903
    10  H    1.073047   2.132604   2.921258   6.747867   6.610916
                    6          7          8          9         10
     6  Sn   0.000000
     7  Sn   2.712687   0.000000
     8  Br   3.552984   4.448888   0.000000
     9  F    4.409706   6.501092   3.174473   0.000000
    10  H    3.255669   5.737751   3.925592   1.999337   0.000000
 Stoichiometry    C2H4BrFSn2
 Framework group  C1[X(C2H4BrFSn2)]
 Deg. of freedom    24
 Full point group                 C1      NOp   1
 Largest Abelian subgroup         C1      NOp   1
 Largest concise Abelian subgroup C1      NOp   1
                         Standard orientation:                         
 ---------------------------------------------------------------------
 Center     Atomic      Atomic             Coordinates (Angstroms)
 Number     Number       Type             X           Y           Z
 ---------------------------------------------------------------------
      1          6           0        2.722512   -1.209273    0.407444
      2          6           0        1.703998   -0.432648    0.102923
      3          1           0       -0.214037   -2.670922    0.617660
      4          1           0       -3.718860   -0.313375   -0.299323
      5          1           0       -2.287196    1.835660   -0.900139
      6         50           0       -0.277145   -1.194450   -0.254686
      7         50           0       -2.314357    0.535255    0.210673
      8         35           0        2.006036    1.526481   -0.169172
      9          9           0        4.038442   -0.800129    0.561233
     10          1           0        2.678855   -2.265747    0.590161
 ---------------------------------------------------------------------
 Rotational constants (GHZ):      1.1031470      0.3504725      0.2730249
 Standard basis: LANL2DZ (5D, 7F)
 There are    59 symmetry adapted basis functions of A   symmetry.
 Integral buffers will be    131072 words long.
 Raffenetti 1 integral format.
 Two-electron integral symmetry is turned on.
    59 basis functions,   127 primitive gaussians,    59 cartesian basis functions
    20 alpha electrons       20 beta electrons
       nuclear repulsion energy       133.4442042838 Hartrees.
 NAtoms=   10 NActive=   10 NUniq=   10 SFac= 7.50D-01 NAtFMM=   80 NAOKFM=F Big=F
 One-electron integrals computed using PRISM.
   1 Symmetry operations used in ECPInt.
 ECPInt:  NShTT=     630 NPrTT=    3262 LenC2=     623 LenP2D=    2675.
 LDataN:  DoStor=T MaxTD1= 4 Len=   56
 NBasis=    59 RedAO= T  NBF=    59
 NBsUse=    59 1.00D-06 NBFU=    59
 Initial guess read from the read-write file.
 B after Tr=     0.000000    0.000000    0.000000
         Rot=    1.000000    0.000000    0.000000    0.000000 Ang=   0.00 deg.
 Initial guess orbital symmetries:
       Occupied  (A) (A) (A) (A) (A) (A) (A) (A) (A) (A) (A) (A)
                 (A) (A) (A) (A) (A) (A) (A) (A)
       Virtual   (A) (A) (A) (A) (A) (A) (A) (A) (A) (A) (A) (A)
                 (A) (A) (A) (A) (A) (A) (A) (A) (A) (A) (A) (A)
                 (A) (A) (A) (A) (A) (A) (A) (A) (A) (A) (A) (A)
                 (A) (A) (A)
 Harris functional with IExCor=  205 diagonalized for initial guess.
 ExpMin= 6.30D-02 ExpMax= 1.00D+04 ExpMxC= 3.50D+02 IAcc=2 IRadAn=         0 AccDes= 0.00D+00
 HarFok:  IExCor=  205 AccDes= 0.00D+00 IRadAn=         0 IDoV= 1
 ScaDFX=  1.000000  1.000000  1.000000  1.000000
 Defaulting to unpruned grid for atomic number  50.
 Defaulting to unpruned grid for atomic number  50.
 Defaulting to unpruned grid for atomic number  50.
 Defaulting to unpruned grid for atomic number  50.
 Defaulting to unpruned grid for atomic number  50.
 Defaulting to unpruned grid for atomic number  50.
 Defaulting to unpruned grid for atomic number  50.
 Defaulting to unpruned grid for atomic number  50.
 Defaulting to unpruned grid for atomic number  50.
 Defaulting to unpruned grid for atomic number  50.
 Defaulting to unpruned grid for atomic number  50.
 Defaulting to unpruned grid for atomic number  50.
 Defaulting to unpruned grid for atomic number  50.
 Defaulting to unpruned grid for atomic number  50.
 Defaulting to unpruned grid for atomic number  50.
 Defaulting to unpruned grid for atomic number  50.
 Defaulting to unpruned grid for atomic number  50.
 Defaulting to unpruned grid for atomic number  50.
 Defaulting to unpruned grid for atomic number  50.
 Defaulting to unpruned grid for atomic number  50.
 Defaulting to unpruned grid for atomic number  50.
 Defaulting to unpruned grid for atomic number  50.
 Defaulting to unpruned grid for atomic number  50.
 Defaulting to unpruned grid for atomic number  50.
 FoFCou: FMM=F IPFlag=           0 FMFlag=      100000 FMFlg1=           0
         NFxFlg=           0 DoJE=T BraDBF=F KetDBF=T FulRan=T
         Omega=  0.000000  0.000000  1.000000  0.000000  0.000000 ICntrl=     500 IOpCl=  0
         NMat0=    1 NMatS0=    1 NMatT0=    0 NMatD0=    1 NMtDS0=    0 NMtDT0=    0
         I1Cent=           4 NGrid=           0.
 Petite list used in FoFCou.
 Requested convergence on RMS density matrix=1.00D-08 within 128 cycles.
 Requested convergence on MAX density matrix=1.00D-06.
 Requested convergence on             energy=1.00D-06.
 No special actions if energy rises.
 Keep R1 ints in memory in canonical form, NReq=2397822.
 SCF Done:  E(RHF) =  -196.786012015     A.U. after   16 cycles
             Convg  =    0.5029D-08             -V/T =  2.0709
   1 Symmetry operations used in ECPInt.
 ECPInt:  NShTT=     630 NPrTT=    3262 LenC2=     623 LenP2D=    2675.
 LDataN:  DoStor=T MaxTD1= 5 Len=  102
 Calling FoFJK, ICntrl=      2127 FMM=F ISym2X=0 I1Cent= 0 IOpClX= 0 NMat=1 NMatS=1 NMatT=0.
 ***** Axes restored to original set *****
 -------------------------------------------------------------------
 Center     Atomic                   Forces (Hartrees/Bohr)
 Number     Number              X              Y              Z
 -------------------------------------------------------------------
      1        6           0.010920920    0.022428492   -0.003643166
      2        6           0.003341272   -0.015278749    0.002553412
      3        1           0.000356577    0.002543566   -0.000438387
      4        1          -0.002295970   -0.001200893   -0.000832395
      5        1           0.002295859   -0.001722038   -0.000045634
      6       50           0.004751975    0.004674559    0.002898220
      7       50          -0.003074271   -0.006870918   -0.001929104
      8       35          -0.008059625    0.007740045    0.000318353
      9        9          -0.005615353   -0.008523460    0.000700265
     10        1          -0.002621384   -0.003790603    0.000418435
 -------------------------------------------------------------------
 Cartesian Forces:  Max     0.022428492 RMS     0.006515120

 GradGradGradGradGradGradGradGradGradGradGradGradGradGradGradGradGradGrad
 Berny optimization.
 Using GEDIIS/GDIIS optimizer.
 Internal  Forces:  Max     0.011151617 RMS     0.004412905
 Search for a local minimum.
 Step number   5 out of a maximum of   43
 All quantities printed in internal units (Hartrees-Bohrs-Radians)
 Mixed Optimization -- RFO/linear search
 Update second derivatives using D2CorX and points    4    5
 DE= -5.99D-03 DEPred=-6.49D-03 R= 9.22D-01
 SS=  1.41D+00  RLast= 6.10D-01 DXNew= 1.4270D+00 1.8313D+00
 Trust test= 9.22D-01 RLast= 6.10D-01 DXMaxT set to 1.43D+00
 Use linear search instead of GDIIS.
     Eigenvalues ---    0.00221   0.00333   0.01612   0.02323   0.02881
     Eigenvalues ---    0.02920   0.03574   0.08959   0.12535   0.12996
     Eigenvalues ---    0.13052   0.13282   0.13305   0.14348   0.16050
     Eigenvalues ---    0.16225   0.17282   0.21612   0.22940   0.24663
     Eigenvalues ---    0.24976   0.37258   0.54249   0.571091000.00000
     Eigenvalues --- 1000.000001000.000001000.000001000.000001000.00000
     Eigenvalues --- 1000.000001000.000001000.00000
 RFO step:  Lambda=-5.02060467D-03 EMin= 2.20910262D-03
 Quartic linear search produced a step of  0.16578.
 Iteration  1 RMS(Cart)=  0.15113554 RMS(Int)=  0.00565629
 Iteration  2 RMS(Cart)=  0.00910328 RMS(Int)=  0.00141950
 Iteration  3 RMS(Cart)=  0.00002349 RMS(Int)=  0.00141935
 Iteration  4 RMS(Cart)=  0.00000003 RMS(Int)=  0.00141935
 Variable       Old X    -DE/DX   Delta X   Delta X   Delta X     New X
                                 (Linear)    (Quad)   (Total)
    R1        2.48788   0.01061   0.00001   0.02387   0.02387   2.51175
    R2        2.62034  -0.00864   0.00250  -0.02262  -0.02012   2.60022
    R3        2.02776  -0.00104   0.00049  -0.00288  -0.00239   2.02537
    R4        4.06759  -0.00101   0.00461  -0.01546  -0.01086   4.05673
    R5        3.78108  -0.01115  -0.00358  -0.09698  -0.10056   3.68052
    R6        3.24293   0.00188   0.00525   0.01315   0.01840   3.26133
    R7        3.24731   0.00217   0.00781   0.01673   0.02454   3.27185
    R8        3.23231   0.00230   0.00599   0.01860   0.02459   3.25690
    R9        5.12623   0.01053   0.03111   0.08981   0.12092   5.24715
    A1        2.19665  -0.00652  -0.00097  -0.04226  -0.04325   2.15340
    A2        2.20025  -0.00131   0.00177  -0.01642  -0.01466   2.18559
    A3        1.88623   0.00783  -0.00080   0.05876   0.05794   1.94418
    A4        2.14326   0.00417   0.00304   0.02587   0.02889   2.17215
    A5        2.08549  -0.00293  -0.00277  -0.01907  -0.02187   2.06363
    A6        2.05204  -0.00121  -0.00041  -0.00585  -0.00628   2.04576
    A7        1.75809  -0.00349  -0.01703  -0.02565  -0.04542   1.71267
    A8        2.02311   0.00389  -0.01190   0.02008   0.00626   2.02937
    A9        2.08176   0.00052  -0.00700   0.00032  -0.01005   2.07171
   A10        1.76776   0.00066  -0.01890   0.04633   0.02316   1.79092
   A11        1.82141   0.00435  -0.01753   0.07118   0.05157   1.87298
   A12        1.94061   0.00173  -0.01238   0.04284   0.02864   1.96925
    D1        3.06045   0.00035  -0.00344   0.00428   0.00081   3.06125
    D2       -0.00506  -0.00009  -0.00104  -0.01062  -0.01163  -0.01669
    D3       -0.09334   0.00026  -0.00716   0.01332   0.00613  -0.08721
    D4        3.12434  -0.00019  -0.00475  -0.00158  -0.00630   3.11803
    D5        0.41898  -0.00169  -0.00109  -0.13122  -0.13342   0.28556
    D6        2.69139  -0.00124  -0.04013  -0.13800  -0.17708   2.51431
    D7       -2.79733  -0.00133  -0.00354  -0.11717  -0.12176  -2.91909
    D8       -0.52491  -0.00088  -0.04257  -0.12395  -0.16542  -0.69033
    D9        3.05368   0.00187   0.00379   0.13466   0.13981  -3.08970
   D10        1.16149  -0.00172   0.04487   0.02940   0.07208   1.23357
   D11       -1.12383   0.00091  -0.04692   0.11648   0.07175  -1.05208
   D12       -3.01602  -0.00268  -0.00583   0.01122   0.00402  -3.01200
         Item               Value     Threshold  Converged?
 Maximum Force            0.011152     0.000450     NO 
 RMS     Force            0.004413     0.000300     NO 
 Maximum Displacement     0.360047     0.001800     NO 
 RMS     Displacement     0.149518     0.001200     NO 
 Predicted change in Energy=-3.112292D-03
 GradGradGradGradGradGradGradGradGradGradGradGradGradGradGradGradGradGrad

                          Input orientation:                          
 ---------------------------------------------------------------------
 Center     Atomic      Atomic             Coordinates (Angstroms)
 Number     Number       Type             X           Y           Z
 ---------------------------------------------------------------------
      1          6           0        2.210418    2.964002   -0.147131
      2          6           0        1.955341    1.681773    0.092658
      3          1           0       -0.923790    2.202860   -0.178793
      4          1           0       -2.142259   -2.043647   -0.253951
      5          1           0        0.361620   -2.895927    0.270834
      6         50           0       -0.005167    0.876680    0.434259
      7         50           0       -0.485876   -1.661814   -0.583038
      8         35           0        3.460950    0.456008    0.247484
      9          9           0        3.482951    3.472186   -0.272492
     10          1           0        1.469950    3.728561   -0.273122
 ---------------------------------------------------------------------
                    Distance matrix (angstroms):
                    1          2          3          4          5
     1  C    0.000000
     2  C    1.329163   0.000000
     3  H    3.225461   2.938471   0.000000
     4  H    6.635793   5.548803   4.418500   0.000000
     5  H    6.158857   4.850467   5.277507   2.696514   0.000000
     6  Sn   3.098990   2.146731   1.725820   3.683627   3.793917
     7  Sn   5.371981   4.194719   3.910356   1.731387   1.723480
     8  Br   2.830121   1.947647   4.739109   6.155945   4.565289
     9  F    1.375975   2.381703   4.586865   7.878308   7.112719
    10  H    1.071782   2.135121   2.840185   6.809318   6.738555
                    6          7          8          9         10
     6  Sn   0.000000
     7  Sn   2.776674   0.000000
     8  Br   3.496543   4.555477   0.000000
     9  F    4.404897   6.496612   3.060750   0.000000
    10  H    3.287793   5.742599   3.865839   2.029261   0.000000
 Stoichiometry    C2H4BrFSn2
 Framework group  C1[X(C2H4BrFSn2)]
 Deg. of freedom    24
 Full point group                 C1      NOp   1
 Largest Abelian subgroup         C1      NOp   1
 Largest concise Abelian subgroup C1      NOp   1
[...]
     2   6     0.00   0.00   0.00     0.00   0.00   0.00     0.01   0.00   0.00
     3   1     0.00   0.10   0.05     0.00   0.10   0.06     0.00   0.00   0.00
     4   1     0.86   0.36  -0.33     0.04   0.00  -0.03     0.00   0.00   0.00
     5   1    -0.02  -0.06  -0.01     0.03   0.91   0.40     0.00   0.00   0.00
     6  50     0.00   0.00   0.00     0.00   0.00   0.00     0.00   0.00   0.00
     7  50    -0.01   0.00   0.00     0.00  -0.01   0.00     0.00   0.00   0.00
     8  35     0.00   0.00   0.00     0.00   0.00   0.00     0.00   0.00   0.00
     9   9     0.00   0.00   0.00     0.00   0.00   0.00     0.00   0.00   0.00
    10   1     0.00   0.00   0.00     0.00   0.00   0.00    -0.17  -0.93  -0.31

 -------------------
 - Thermochemistry -
 -------------------
 Temperature   298.150 Kelvin.  Pressure   1.00000 Atm.
 Atom     1 has atomic number  6 and mass  12.00000
 Atom     2 has atomic number  6 and mass  12.00000
 Atom     3 has atomic number  1 and mass   1.00783
 Atom     4 has atomic number  1 and mass   1.00783
 Atom     5 has atomic number  1 and mass   1.00783
 Atom     6 has atomic number 50 and mass 117.90180
 Atom     7 has atomic number 50 and mass 117.90180
 Atom     8 has atomic number 35 and mass  78.91834
 Atom     9 has atomic number  9 and mass  18.99840
 Atom    10 has atomic number  1 and mass   1.00783
 Molecular mass:   361.75164 amu.
 Principal axes and moments of inertia in atomic units:
                           1         2         3
     Eigenvalues --  1689.247605554.767306618.73515
           X            0.99980  -0.01407  -0.01450
           Y            0.01465   0.99908   0.04039
           Z            0.01392  -0.04060   0.99908
 This molecule is an asymmetric top.
 Rotational symmetry number  1.
 Warning -- assumption of classical behavior for rotation
           may cause significant error
 Rotational temperatures (Kelvin)      0.05127     0.01559     0.01309
 Rotational constants (GHZ):           1.06837     0.32490     0.27267
 Zero-point vibrational energy     121063.5 (Joules/Mol)
                                   28.93487 (Kcal/Mol)
 Warning -- explicit consideration of  13 degrees of freedom as
           vibrations may cause significant error
 Vibrational temperatures:     37.18    43.77   174.07   187.04   234.74
          (Kelvin)            257.78   284.37   399.81   455.01   532.34
                              689.26   749.76   769.48   967.57  1204.20
                             1276.70  1429.80  1604.74  2056.95  2586.24
                             2717.68  2743.02  2761.30  4958.37
 
 Zero-point correction=                           0.046111 (Hartree/Particle)
 Thermal correction to Energy=                    0.056018
 Thermal correction to Enthalpy=                  0.056962
 Thermal correction to Gibbs Free Energy=         0.005786
 Sum of electronic and zero-point Energies=           -196.743346
 Sum of electronic and thermal Energies=              -196.733439
 Sum of electronic and thermal Enthalpies=            -196.732494
 Sum of electronic and thermal Free Energies=         -196.783670
 
                     E (Thermal)             CV                S
                      KCal/Mol        Cal/Mol-Kelvin    Cal/Mol-Kelvin
 Total                   35.152             30.763            107.708
 Electronic               0.000              0.000              0.000
 Translational            0.889              2.981             43.551
 Rotational               0.889              2.981             32.496
 Vibrational             33.374             24.802             31.662
 Vibration     1          0.593              1.985              6.126
 Vibration     2          0.594              1.984              5.802
 Vibration     3          0.609              1.932              3.085
 Vibration     4          0.612              1.923              2.946
 Vibration     5          0.623              1.888              2.513
 Vibration     6          0.629              1.868              2.337
 Vibration     7          0.637              1.843              2.155
 Vibration     8          0.679              1.714              1.547
 Vibration     9          0.703              1.643              1.329
 Vibration    10          0.742              1.534              1.080
 Vibration    11          0.835              1.297              0.713
 Vibration    12          0.876              1.203              0.607
 Vibration    13          0.890              1.173              0.577
                       Q            Log10(Q)             Ln(Q)
 Total Bot       0.218018D-02         -2.661508         -6.128348
 Total V=0       0.353083D+19         18.547877         42.708064
 Vib (Bot)       0.285764D-17        -17.543992        -40.396535
 Vib (Bot)    1  0.801391D+01          0.903844          2.081178
 Vib (Bot)    2  0.680558D+01          0.832865          1.917743
 Vib (Bot)    3  0.168870D+01          0.227552          0.523957
 Vib (Bot)    4  0.156822D+01          0.195407          0.449941
 Vib (Bot)    5  0.123793D+01          0.092695          0.213437
 Vib (Bot)    6  0.112137D+01          0.049750          0.114553
 Vib (Bot)    7  0.100975D+01          0.004212          0.009699
 Vib (Bot)    8  0.692651D+00         -0.159485         -0.367228
 Vib (Bot)    9  0.595749D+00         -0.224937         -0.517936
 Vib (Bot)   10  0.492063D+00         -0.307979         -0.709148
 Vib (Bot)   11  0.349394D+00         -0.456685         -1.051555
 Vib (Bot)   12  0.309433D+00         -0.509433         -1.173012
 Vib (Bot)   13  0.297694D+00         -0.526229         -1.211688
 Vib (V=0)       0.462799D+04          3.665392          8.439877
 Vib (V=0)    1  0.852949D+01          0.930923          2.143529
 Vib (V=0)    2  0.732393D+01          0.864744          1.991147
 Vib (V=0)    3  0.226116D+01          0.354332          0.815880
 Vib (V=0)    4  0.214600D+01          0.331629          0.763605
 Vib (V=0)    5  0.183509D+01          0.263657          0.607092
 Vib (V=0)    6  0.172779D+01          0.237492          0.546845
 Vib (V=0)    7  0.162676D+01          0.211323          0.486590
 Vib (V=0)    8  0.135426D+01          0.131703          0.303258
 Vib (V=0)    9  0.127776D+01          0.106451          0.245112
 Vib (V=0)   10  0.120152D+01          0.079730          0.183585
 Vib (V=0)   11  0.110998D+01          0.045315          0.104342
 Vib (V=0)   12  0.108800D+01          0.036631          0.084345
 Vib (V=0)   13  0.108191D+01          0.034192          0.078730
 Electronic      0.100000D+01          0.000000          0.000000
 Translational   0.270440D+09          8.432071         19.415561
 Rotational      0.282107D+07          6.450414         14.852626
 ***** Axes restored to original set *****
 -------------------------------------------------------------------
 Center     Atomic                   Forces (Hartrees/Bohr)
 Number     Number              X              Y              Z
 -------------------------------------------------------------------
      1        6           0.000120978    0.000049084   -0.000018391
      2        6          -0.000048593   -0.000022521    0.000017825
      3        1           0.000005074    0.000002833    0.000001729
      4        1          -0.000001192   -0.000003296   -0.000000760
      5        1           0.000005149    0.000004311    0.000003452
      6       50           0.000004207    0.000019265    0.000003626
      7       50          -0.000008324   -0.000025147   -0.000016002
      8       35           0.000005615    0.000005391    0.000001045
      9        9          -0.000069644   -0.000028351   -0.000004637
     10        1          -0.000013270   -0.000001569    0.000012112
 -------------------------------------------------------------------
 Cartesian Forces:  Max     0.000120978 RMS     0.000030604

 GradGradGradGradGradGradGradGradGradGradGradGradGradGradGradGradGradGrad
 Berny optimization.
 Internal  Forces:  Max     0.000073488 RMS     0.000018203
 Search for a local minimum.
 Step number   1 out of a maximum of    2
 All quantities printed in internal units (Hartrees-Bohrs-Radians)
 Second derivative matrix not updated -- analytic derivatives used.
     Eigenvalues ---    0.00382   0.00590   0.00974   0.01756   0.02742
     Eigenvalues ---    0.03614   0.04055   0.05799   0.05870   0.06559
     Eigenvalues ---    0.07794   0.09523   0.12008   0.13493   0.13739
     Eigenvalues ---    0.13786   0.13909   0.14085   0.17143   0.23427
     Eigenvalues ---    0.24256   0.41476   0.42208   0.718371000.00000
     Eigenvalues --- 1000.000001000.000001000.000001000.000001000.00000
     Eigenvalues --- 1000.000001000.000001000.00000
 Angle between quadratic step and forces=  57.86 degrees.
 Linear search not attempted -- first point.
 Iteration  1 RMS(Cart)=  0.00111367 RMS(Int)=  0.00000042
 Iteration  2 RMS(Cart)=  0.00000052 RMS(Int)=  0.00000004
 Variable       Old X    -DE/DX   Delta X   Delta X   Delta X     New X
                                 (Linear)    (Quad)   (Total)
    R1        2.50744   0.00003   0.00000   0.00006   0.00006   2.50750
    R2        2.59440  -0.00007   0.00000  -0.00024  -0.00024   2.59416
    R3        2.02344   0.00001   0.00000   0.00002   0.00002   2.02346
    R4        4.06778  -0.00001   0.00000  -0.00001  -0.00001   4.06777
    R5        3.72254   0.00000   0.00000   0.00011   0.00011   3.72265
    R6        3.27083   0.00000   0.00000   0.00002   0.00002   3.27086
    R7        3.26285   0.00000   0.00000   0.00004   0.00004   3.26289
    R8        3.25479   0.00000   0.00000   0.00005   0.00005   3.25485
    R9        5.33357   0.00003   0.00000   0.00082   0.00082   5.33438
    A1        2.16933   0.00002   0.00000   0.00014   0.00014   2.16947
    A2        2.17711  -0.00002   0.00000  -0.00024  -0.00024   2.17687
    A3        1.93674   0.00000   0.00000   0.00010   0.00010   1.93684
    A4        2.15607   0.00002   0.00000   0.00020   0.00020   2.15626
    A5        2.07871  -0.00002   0.00000  -0.00016  -0.00016   2.07855
    A6        2.04808   0.00000   0.00000  -0.00002  -0.00002   2.04806
    A7        1.70086   0.00000   0.00000  -0.00013  -0.00013   1.70073
    A8        1.98441  -0.00002   0.00000  -0.00058  -0.00058   1.98383
    A9        2.00503   0.00001   0.00000   0.00056   0.00056   2.00560
   A10        1.76640   0.00000   0.00000  -0.00006  -0.00006   1.76633
   A11        1.91918   0.00001   0.00000   0.00035   0.00035   1.91954
   A12        1.98192  -0.00002   0.00000  -0.00070  -0.00070   1.98122
    D1        3.10709   0.00002   0.00000   0.00088   0.00088   3.10797
    D2       -0.00640   0.00001   0.00000   0.00028   0.00028  -0.00612
    D3       -0.03871   0.00001   0.00000   0.00087   0.00087  -0.03784
    D4        3.13098   0.00001   0.00000   0.00028   0.00028   3.13125
    D5        0.08439  -0.00001   0.00000  -0.00045  -0.00045   0.08394
    D6        2.20296   0.00000   0.00000  -0.00011  -0.00011   2.20285
    D7       -3.08484   0.00000   0.00000   0.00013   0.00013  -3.08471
    D8       -0.96627   0.00001   0.00000   0.00048   0.00048  -0.96580
    D9        3.10982   0.00000   0.00000  -0.00076  -0.00076   3.10906
   D10        1.14499   0.00000   0.00000  -0.00051  -0.00051   1.14449
   D11       -1.23463  -0.00001   0.00000  -0.00095  -0.00095  -1.23558
   D12        3.08372   0.00000   0.00000  -0.00069  -0.00069   3.08303
         Item               Value     Threshold  Converged?
 Maximum Force            0.000073     0.000450     YES
 RMS     Force            0.000018     0.000300     YES
 Maximum Displacement     0.002325     0.001800     NO 
 RMS     Displacement     0.001114     0.001200     YES
 Predicted change in Energy=-7.104991D-08
 GradGradGradGradGradGradGradGradGradGradGradGradGradGradGradGradGradGrad

 1\1\GINC-MALLOS28\Freq\RHF\LANL2DZ\C2H4Br1F1Sn2\MARLIN\24-Oct-2024\0\\
 #N Geom=AllCheck Guess=TCheck SCRF=Check GenChk RHF/LANL2DZ Freq\\Titl
 e Card Required\\0,1\C,2.1968665541,2.8963588123,-0.2492766668\C,1.963
 3461508,1.6806063535,0.2282477561\H,-0.9008658393,2.2614770926,-0.0057
 314299\H,-2.1254927599,-2.098646905,-0.2241781604\H,0.426560898,-2.848
 5329311,-0.0555403352\Sn,-0.0102355787,0.9158324712,0.6202590171\Sn,-0
 .5423530455,-1.5513606723,-0.6429755889\Br,3.4887507195,0.508641499,0.
 652606337\F,3.449441871,3.4139154034,-0.4684625552\H,1.43811857,3.6023
 891964,-0.5182404837\\Version=EM64L-G09RevA.01\State=1-A\HF=-196.78945
 64\RMSD=6.724e-10\RMSF=3.060e-05\ZeroPoint=0.0461107\Thermal=0.0560179
 \Dipole=-1.4670188,-0.0608222,-0.1603404\DipoleDeriv=0.685577,0.990449
 2,-0.301002,0.5095858,1.0128594,-0.1586685,-0.1914249,-0.3617641,0.220
 5477,-0.1460747,-0.6315287,0.2224319,-0.8302123,-0.6726704,-0.0884031,
 0.4935831,0.4795589,-0.1507108,-0.3788842,-0.0169036,0.0008201,0.10435
 94,-0.4239744,0.062644,0.02958,0.4055564,0.032696,-0.4125164,-0.140700
 1,-0.0264632,-0.1603851,-0.3132226,0.0497821,0.1778571,0.3594422,0.040
 2134,-0.2358956,0.022802,0.0171221,0.0727059,-0.4243604,0.0539087,0.05
 20794,0.4092959,0.0566406,1.2539037,0.57023,0.0681244,0.4088264,0.9978
 273,-0.0649984,-0.379788,-0.8153794,0.0227102,0.6635602,0.0846702,-0.0
 169168,0.0566978,0.7204165,-0.1250139,-0.231114,-0.7858772,-0.0627067,
 -0.4451268,0.162453,-0.147347,0.1516797,-0.157439,0.0904397,-0.061301,
 0.0437045,-0.0556443,-1.0107302,-1.0109212,0.1616341,-0.4084849,-0.806
 4977,0.0855237,0.1334853,0.1855305,-0.2802984,0.026187,-0.0305506,0.02
 15964,0.0952274,0.0670613,0.0947857,-0.022957,0.0799322,0.1765522\Pola
 r=114.8591071,17.8455149,171.0431292,19.2763556,41.3059867,89.8202857\
 HyperPolar=-347.8620931,-141.8012496,-82.6957808,143.1332318,-1.263996
 8,-23.9532025,-39.8927857,-55.3581108,-14.0899894,3.2454991\PG=C01 [X(
 C2H4Br1F1Sn2)]\NImag=0\\0.62681727,-0.02224741,0.88914135,0.00277499,-
 0.28806012,0.26680852,-0.09197847,-0.05842444,0.02262835,0.31964998,-0
 .09454044,-0.55097108,0.19071162,0.09439363,0.67269726,0.03675022,0.18
 899523,-0.14072547,-0.04397024,-0.23335305,0.16636153,0.00134916,0.000
 75148,-0.00038961,-0.00554210,0.00865696,-0.00448125,0.04877322,0.0005
 2362,-0.00142300,0.00041159,-0.00094030,0.00271093,-0.00016516,-0.0481
 6063,0.08660184,-0.00057774,-0.00012449,-0.00035938,0.00152101,-0.0001
 3732,0.00024226,0.02245537,-0.03542131,0.02239022,0.00040114,0.0004765
 0,-0.00022534,0.00002049,-0.00033936,-0.00012893,0.00010822,-0.0003121
 8,-0.00000977,0.11908019,0.00005903,0.00042807,-0.00036863,0.00031911,
 -0.00178034,-0.00216450,0.00014643,-0.00035575,-0.00103572,0.03496117,
 0.02534228,-0.00123993,-0.00107282,0.00042720,0.00033915,-0.00098505,-
 0.00091086,0.00003642,-0.00091655,-0.00196508,-0.02666952,-0.01127138,
 0.01288273,0.00031019,-0.00009142,-0.00000203,-0.00010635,0.00051586,-
 0.00041869,0.00004925,-0.00032853,-0.00087211,-0.00690359,0.00882916,-
 0.00429009,0.05553539,0.00022660,0.00034799,-0.00022491,0.00004415,-0.
 00080834,-0.00078362,-0.00031702,-0.00084629,-0.00211087,-0.00224181,0
 .00343537,-0.00008786,-0.05376285,0.08324383,-0.00037776,-0.00128820,0
 .00041042,0.00029718,0.00068627,-0.00294825,-0.00072982,-0.00210324,-0
 .00068487,0.00275262,-0.00139459,0.00092748,0.02391345,-0.03362996,0.0
 1999053,-0.01099667,-0.00550887,0.00309744,-0.10597319,-0.03838936,0.0
 2237050,-0.04037420,0.04722006,-0.02487757,-0.00031311,-0.00275705,-0.
 00347201,0.00053200,0.00321762,-0.00059484,0.16238168,-0.01753800,-0.0
 0391573,0.00309207,-0.03455132,-0.03594333,0.01148731,0.03833361,-0.09
 201286,0.04326522,0.00198427,0.00370477,-0.00238031,-0.00030646,0.0024
 5459,-0.00394108,0.00354349,0.18138878,0.00623525,0.00254516,0.0005742
 7,0.01659347,0.00379614,-0.01940207,-0.01834323,0.03104639,-0.02335091
 ,0.00217804,0.00748006,0.00263089,0.00197380,0.00798268,0.00386635,0.0
 0505710,-0.04125676,0.05043650,-0.00117219,0.00060069,-0.00048671,0.00
 013800,-0.00471553,-0.00199240,0.00071829,0.00295878,0.00089398,-0.111
 91630,-0.04094324,0.03424213,-0.04945081,0.05363130,-0.02653608,-0.008
 16267,-0.00773773,-0.00406890,0.17015478,0.00141823,0.00041026,-0.0005
 3702,-0.00044059,0.00242742,-0.00126459,0.00018773,0.00287860,-0.00355
 044,-0.03427265,-0.03070384,0.01677138,0.04530730,-0.08790421,0.041421
 68,-0.00902135,-0.04847133,-0.01515169,-0.00383675,0.16076057,0.002712
 32,0.00323260,-0.00110156,-0.00036061,0.00317000,0.00516403,0.00126854
 ,0.00812670,0.00313672,0.02201221,0.00831989,-0.01415150,-0.02035986,0
 .02869003,-0.02168503,-0.00045716,-0.01411097,-0.01814663,-0.00263747,
 -0.03745587,0.04746618,-0.02190519,0.00099823,0.00015462,-0.08697387,0
 .05795854,-0.01993481,-0.00426899,-0.00106604,0.00089879,-0.00003886,-
 0.00011274,0.00031594,0.00003865,-0.00035458,0.00033956,-0.00685326,0.
 01515598,-0.00666761,-0.00001632,0.00007075,-0.00069710,0.11062116,0.0
 4127856,-0.01808302,0.00910662,0.03454262,-0.06227682,0.01505156,0.000
 34518,0.00094302,-0.00038269,-0.00007574,0.00010817,-0.00006570,-0.000
 19194,0.00015665,-0.00025136,-0.00227712,-0.00363489,0.00266155,0.0003
 6974,-0.00017741,0.00023331,-0.07079376,0.08454314,-0.01536239,0.00981
 850,0.00388867,-0.01202421,0.01498494,-0.02607491,0.00002575,-0.000159
 86,0.00071850,-0.00000217,0.00005625,0.00006557,0.00003220,0.00001864,
 0.00005934,0.00117494,0.00150953,0.00068438,0.00010811,0.00008206,-0.0
 0015442,0.02501755,-0.02743951,0.02014751,-0.28627198,-0.07825345,0.03
 395641,-0.03673947,-0.01455061,0.00839720,-0.00092220,0.00015886,0.000
 61794,-0.00042079,-0.00051561,0.00076544,0.00001008,-0.00048051,0.0009
 8751,0.00969566,0.00265264,-0.00366746,-0.00032683,0.00061673,-0.00159
 401,0.00723371,0.00004001,-0.00022878,0.34690574,-0.07636372,-0.102581
 53,0.02299133,-0.05438888,-0.01610710,0.01580952,-0.00043116,0.0008279
 0,0.00014590,-0.00021178,-0.00017818,0.00022809,0.00005975,-0.00015391
 ,0.00069125,0.00461072,-0.00124118,0.00003069,-0.00026964,0.00086541,-
 0.00066265,-0.00197924,-0.00044939,-0.00208914,0.11643997,0.11004336,0
 .03328542,0.02269607,-0.05667360,0.02269187,0.01461791,0.01326760,0.00
 031510,-0.00020757,0.00023203,0.00012527,0.00055579,0.00017402,0.00003
 519,0.00029192,0.00019422,-0.00273769,0.00099800,0.00428648,0.00057404
 ,-0.00025046,-0.00088811,0.00033199,-0.00208058,-0.00516555,-0.0503160
 1,-0.03654927,0.03643012,-0.21655326,0.16169869,-0.06150812,0.00750497
 ,-0.00898968,0.00340840,0.00010935,-0.00005364,-0.00004990,-0.00001738
 ,0.00001374,-0.00002754,-0.00001481,0.00003710,-0.00005182,0.00006376,
 -0.00153649,0.00070955,0.00003405,-0.00002940,0.00011313,0.00216297,-0
 .00323757,0.00125899,-0.03916393,0.01253398,-0.00430517,0.24587428,0.1
 6718352,-0.21335331,0.06287745,0.01944603,-0.00994861,0.00638729,0.000
 48741,0.00067560,-0.00064829,0.00003157,-0.00000055,-0.00021979,-0.000
 03087,0.00007433,-0.00019079,-0.00063814,-0.00232882,0.00086578,-0.000
 05762,-0.00008548,0.00045696,0.00012286,-0.00112945,0.00321859,-0.0261
 0802,0.00897461,-0.00007180,-0.16043674,0.21712169,-0.06420038,0.06325
 807,-0.07324908,-0.00771597,0.00650854,0.00502612,-0.00015726,-0.00061
 100,-0.00035948,-0.00003240,-0.00017717,-0.00008045,-0.00001186,-0.000
 14606,-0.00013019,0.00043929,0.00133701,-0.00157926,-0.00009671,-0.000
 06505,0.00036033,0.00024107,0.00316680,0.00583091,0.01108174,-0.000595
 72,0.00814278,0.06045248,-0.07267541,0.05603831\\-0.00012098,-0.000049
 08,0.00001839,0.00004859,0.00002252,-0.00001782,-0.00000507,-0.0000028
 3,-0.00000173,0.00000119,0.00000330,0.00000076,-0.00000515,-0.00000431
 ,-0.00000345,-0.00000421,-0.00001927,-0.00000363,0.00000832,0.00002515
 ,0.00001600,-0.00000561,-0.00000539,-0.00000105,0.00006964,0.00002835,
 0.00000464,0.00001327,0.00000157,-0.00001211\\\@


 Sometimes the fool who rushes in gets the job done.
                                    -- Al Bernstein
 Job cpu time:  0 days  0 hours  0 minutes 58.2 seconds.
 File lengths (MBytes):  RWF=      9 Int=      0 D2E=      0 Chk=      1 Scr=      1
 Normal termination of Gaussian 09 at Thu Oct 24 10:12:38 2024.
