 Entering Gaussian System, Link 0=g09
 Initial command:
 /u/local/G09/g09/l1.exe /tmp1/marlin/22681.mallos00.local/Gau-87876.inp -scrdir=/tmp1/marlin/22681.mallos00.local/
 Entering Link 1 = /u/local/G09/g09/l1.exe PID=     87877.
  
 Copyright (c) 1988,1990,1992,1993,1995,1998,2003,2009, Gaussian, Inc.
                  All Rights Reserved.
  
 This is part of the Gaussian(R) 09 program.  It is based on
 the Gaussian(R) 03 system (copyright 2003, Gaussian, Inc.),
 the Gaussian(R) 98 system (copyright 1998, Gaussian, Inc.),
 the Gaussian(R) 94 system (copyright 1995, Gaussian, Inc.),
 the Gaussian 92(TM) system (copyright 1992, Gaussian, Inc.),
 the Gaussian 90(TM) system (copyright 1990, Gaussian, Inc.),
 the Gaussian 88(TM) system (copyright 1988, Gaussian, Inc.),
 the Gaussian 86(TM) system (copyright 1986, Carnegie Mellon
 University), and the Gaussian 82(TM) system (copyright 1983,
 Carnegie Mellon University). Gaussian is a federally registered
 trademark of Gaussian, Inc.
  
 This software contains proprietary and confidential information,
 including trade secrets, belonging to Gaussian, Inc.
  
 This software is provided under written license and may be
 used, copied, transmitted, or stored only in accord with that
 written license.
  
 The following legend is applicable only to US Government
 contracts under FAR:
  
                    RESTRICTED RIGHTS LEGEND
  
 Use, reproduction and disclosure by the US Government is
 subject to restrictions as set forth in subparagraphs (a)
 and (c) of the Commercial Computer Software - Restricted
 Rights clause in FAR 52.227-19.
  
 Gaussian, Inc.
 340 Quinnipiac St., Bldg. 40, Wallingford CT 06492
  
  
 ---------------------------------------------------------------
 Warning -- This program may not be used in any manner that
 competes with the business of Gaussian, Inc. or will provide
 assistance to any competitor of Gaussian, Inc.  The licensee
 of this program is prohibited from giving any competitor of
 Gaussian, Inc. access to this program.  By using this program,
 the user acknowledges that Gaussian, Inc. is engaged in the
 business of creating and licensing software in the field of
 computational chemistry and represents and warrants to the
 licensee that it is not a competitor of Gaussian, Inc. and that
 it will not use this program in any manner prohibited above.
 ---------------------------------------------------------------
  

 Cite this work as:
 Gaussian 09, Revision A.01,
 M. J. Frisch, G. W. Trucks, H. B. Schlegel, G. E. Scuseria, 
 M. A. Robb, J. R. Cheeseman, G. Scalmani, V. Barone, B. Mennucci, 
 G. A. Petersson, H. Nakatsuji, M. Caricato, X. Li, H. P. Hratchian, 
 A. F. Izmaylov, J. Bloino, G. Zheng, J. L. Sonnenberg, M. Hada, 
 M. Ehara, K. Toyota, R. Fukuda, J. Hasegawa, M. Ishida, T. Nakajima, 
 Y. Honda, O. Kitao, H. Nakai, T. Vreven, J. A. Montgomery, Jr., 
 J. E. Peralta, F. Ogliaro, M. Bearpark, J. J. Heyd, E. Brothers, 
 K. N. Kudin, V. N. Staroverov, R. Kobayashi, J. Normand, 
 K. Raghavachari, A. Rendell, J. C. Burant, S. S. Iyengar, J. Tomasi, 
 M. Cossi, N. Rega, J. M. Millam, M. Klene, J. E. Knox, J. B. Cross, 
 V. Bakken, C. Adamo, J. Jaramillo, R. Gomperts, R. E. Stratmann, 
 O. Yazyev, A. J. Austin, R. Cammi, C. Pomelli, J. W. Ochterski, 
 R. L. Martin, K. Morokuma, V. G. Zakrzewski, G. A. Voth, 
 P. Salvador, J. J. Dannenberg, S. Dapprich, A. D. Daniels, 
 O. Farkas, J. B. Foresman, J. V. Ortiz, J. Cioslowski, 
 and D. J. Fox, Gaussian, Inc., Wallingford CT, 2009.
 
 ******************************************
 Gaussian 09:  EM64L-G09RevA.01  8-May-2009
                24-Oct-2024 
 ******************************************
 %mem=103GB
 %nproc=20
 Will use up to   20 processors via shared memory.
 %chk=6-mp2.chk
 --------------------------------------------
 # opt freq=noraman mp2/lanl2dz geom=allcheck
 --------------------------------------------
 1/18=20,19=15,29=7,38=1/1,3;
 2/9=110,12=2,40=1/2;
 3/5=6,6=3,11=9,14=-4,16=1,25=1,30=1,71=1/1,2,3;
 4//1;
 5/5=2,38=5/2;
 8/6=4,10=1/1;
 9/15=2,16=-3/6;
 10/5=1/2;
 6/7=2,8=2,9=2,10=2/1;
 7/12=2/1,2,3,16;
 1/18=20,19=15/3(2);
 2/9=110/2;
 99//99;
 2/9=110/2;
 3/5=6,6=3,11=9,14=-2,16=1,25=1,30=1,71=1/1,2,3;
 4/5=5,16=3/1;
 5/5=2,38=5/2;
 8/6=4,10=1/1;
 9/15=2,16=-3/6;
 10/5=1/2;
 7/12=2/1,2,3,16;
 1/18=20,19=15/3(-8);
 2/9=110/2;
 6/7=2,8=2,9=2,10=2/1;
 99//99;
 -------------------
 Title Card Required
 -------------------
 Redundant internal coordinates taken from checkpoint file:
 6-mp2.chk
 Charge =  0 Multiplicity = 1
 C,0,2.1968665541,2.8963588123,-0.2492766668
 C,0,1.9633461508,1.6806063535,0.2282477561
 H,0,-0.9008658393,2.2614770926,-0.0057314299
 H,0,-2.1254927599,-2.098646905,-0.2241781604
 H,0,0.426560898,-2.8485329311,-0.0555403352
 Sn,0,-0.0102355787,0.9158324712,0.6202590171
 Sn,0,-0.5423530455,-1.5513606723,-0.6429755889
 Br,0,3.4887507195,0.508641499,0.652606337
 F,0,3.449441871,3.4139154034,-0.4684625552
 H,0,1.43811857,3.6023891964,-0.5182404837
 Recover connectivity data from disk.

 GradGradGradGradGradGradGradGradGradGradGradGradGradGradGradGradGradGrad
 Berny optimization.
 Initialization pass.
                           ----------------------------
                           !    Initial Parameters    !
                           ! (Angstroms and Degrees)  !
 --------------------------                            --------------------------
 ! Name  Definition              Value          Derivative Info.                !
 --------------------------------------------------------------------------------
 ! R1    R(1,2)                  1.3269         estimate D2E/DX2                !
 ! R2    R(1,9)                  1.3729         estimate D2E/DX2                !
 ! R3    R(1,10)                 1.0708         estimate D2E/DX2                !
 ! R4    R(2,6)                  2.1526         estimate D2E/DX2                !
 ! R5    R(2,8)                  1.9699         estimate D2E/DX2                !
 ! R6    R(3,6)                  1.7309         estimate D2E/DX2                !
 ! R7    R(4,7)                  1.7266         estimate D2E/DX2                !
 ! R8    R(5,7)                  1.7224         estimate D2E/DX2                !
 ! R9    R(6,7)                  2.8224         estimate D2E/DX2                !
 ! A1    A(2,1,9)              124.2934         estimate D2E/DX2                !
 ! A2    A(2,1,10)             124.7392         estimate D2E/DX2                !
 ! A3    A(9,1,10)             110.967          estimate D2E/DX2                !
 ! A4    A(1,2,6)              123.5335         estimate D2E/DX2                !
 ! A5    A(1,2,8)              119.1016         estimate D2E/DX2                !
 ! A6    A(6,2,8)              117.3464         estimate D2E/DX2                !
 ! A7    A(2,6,3)               97.4521         estimate D2E/DX2                !
 ! A8    A(2,6,7)              113.6981         estimate D2E/DX2                !
 ! A9    A(3,6,7)              114.8799         estimate D2E/DX2                !
 ! A10   A(4,7,5)              101.207          estimate D2E/DX2                !
 ! A11   A(4,7,6)              109.9611         estimate D2E/DX2                !
 ! A12   A(5,7,6)              113.5557         estimate D2E/DX2                !
 ! D1    D(9,1,2,6)            178.0234         estimate D2E/DX2                !
 ! D2    D(9,1,2,8)             -0.3669         estimate D2E/DX2                !
 ! D3    D(10,1,2,6)            -2.218          estimate D2E/DX2                !
 ! D4    D(10,1,2,8)           179.3917         estimate D2E/DX2                !
 ! D5    D(1,2,6,3)              4.8351         estimate D2E/DX2                !
 ! D6    D(1,2,6,7)            126.2202         estimate D2E/DX2                !
 ! D7    D(8,2,6,3)           -176.7483         estimate D2E/DX2                !
 ! D8    D(8,2,6,7)            -55.3632         estimate D2E/DX2                !
 ! D9    D(2,6,7,4)            178.1798         estimate D2E/DX2                !
 ! D10   D(2,6,7,5)             65.6033         estimate D2E/DX2                !
 ! D11   D(3,6,7,4)            -70.7391         estimate D2E/DX2                !
 ! D12   D(3,6,7,5)            176.6843         estimate D2E/DX2                !
 --------------------------------------------------------------------------------
 Trust Radius=3.00D-01 FncErr=1.00D-07 GrdErr=1.00D-07
 Number of steps in this run=  43 maximum allowed number of steps= 100.
 GradGradGradGradGradGradGradGradGradGradGradGradGradGradGradGradGradGrad

                          Input orientation:                          
 ---------------------------------------------------------------------
 Center     Atomic      Atomic             Coordinates (Angstroms)
 Number     Number       Type             X           Y           Z
 ---------------------------------------------------------------------
      1          6           0        2.196867    2.896359   -0.249277
      2          6           0        1.963346    1.680606    0.228248
      3          1           0       -0.900866    2.261477   -0.005731
      4          1           0       -2.125493   -2.098647   -0.224178
      5          1           0        0.426561   -2.848533   -0.055540
      6         50           0       -0.010236    0.915832    0.620259
      7         50           0       -0.542353   -1.551361   -0.642976
      8         35           0        3.488751    0.508641    0.652606
      9          9           0        3.449442    3.413915   -0.468463
     10          1           0        1.438119    3.602389   -0.518240
 ---------------------------------------------------------------------
                    Distance matrix (angstroms):
                    1          2          3          4          5
     1  C    0.000000
     2  C    1.326882   0.000000
     3  H    3.171488   2.931871   0.000000
     4  H    6.605566   5.586237   4.534105   0.000000
     5  H    6.014590   4.791174   5.279843   2.665285   0.000000
     6  Sn   3.090287   2.152574   1.730851   3.778157   3.849408
     7  Sn   5.238371   4.181288   3.882312   1.726628   1.722362
     8  Br   2.860691   1.969883   4.772271   6.251914   4.598815
     9  F    1.372899   2.387100   4.524092   7.843973   6.966102
    10  H    1.070756   2.127524   2.744369   6.729607   6.546124
                    6          7          8          9         10
     6  Sn   0.000000
     7  Sn   2.822402   0.000000
     8  Br   3.522748   4.708709   0.000000
     9  F    4.403987   6.373292   3.114315   0.000000
    10  H    3.257529   5.522587   3.891947   2.020748   0.000000
 Stoichiometry    C2H4BrFSn2
 Framework group  C1[X(C2H4BrFSn2)]
 Deg. of freedom    24
 Full point group                 C1      NOp   1
 Largest Abelian subgroup         C1      NOp   1
 Largest concise Abelian subgroup C1      NOp   1
                         Standard orientation:                         
 ---------------------------------------------------------------------
 Center     Atomic      Atomic             Coordinates (Angstroms)
 Number     Number       Type             X           Y           Z
 ---------------------------------------------------------------------
      1          6           0       -2.537695    1.180936    0.849234
      2          6           0       -1.678114    0.433721    0.168496
      3          1           0        0.206580    2.675295    0.306847
      4          1           0        3.880522    0.078856   -0.257750
      5          1           0        2.350953   -2.100464   -0.379108
      6         50           0        0.257205    1.128502   -0.468211
      7         50           0        2.384824   -0.538135    0.345123
      8         35           0       -2.193793   -1.398486   -0.338984
      9          9           0       -3.790375    0.767212    1.229338
     10          1           0       -2.348544    2.182117    1.178443
 ---------------------------------------------------------------------
 Rotational constants (GHZ):      1.0683698      0.3248995      0.2726716
 Standard basis: LANL2DZ (5D, 7F)
 There are    59 symmetry adapted basis functions of A   symmetry.
 Integral buffers will be    131072 words long.
 Raffenetti 1 integral format.
 Two-electron integral symmetry is turned on.
    59 basis functions,   127 primitive gaussians,    59 cartesian basis functions
    20 alpha electrons       20 beta electrons
       nuclear repulsion energy       133.7795935632 Hartrees.
 NAtoms=   10 NActive=   10 NUniq=   10 SFac= 7.50D-01 NAtFMM=   80 NAOKFM=F Big=F
 One-electron integrals computed using PRISM.
   1 Symmetry operations used in ECPInt.
 ECPInt:  NShTT=     630 NPrTT=    3262 LenC2=     623 LenP2D=    2673.
 LDataN:  DoStor=T MaxTD1= 4 Len=   56
 NBasis=    59 RedAO= T  NBF=    59
 NBsUse=    59 1.00D-06 NBFU=    59
 Harris functional with IExCor=  205 diagonalized for initial guess.
 ExpMin= 6.30D-02 ExpMax= 1.00D+04 ExpMxC= 3.50D+02 IAcc=2 IRadAn=         0 AccDes= 0.00D+00
 HarFok:  IExCor=  205 AccDes= 0.00D+00 IRadAn=         0 IDoV= 1
 ScaDFX=  1.000000  1.000000  1.000000  1.000000
 Defaulting to unpruned grid for atomic number  50.
 Defaulting to unpruned grid for atomic number  50.
 Defaulting to unpruned grid for atomic number  50.
 Defaulting to unpruned grid for atomic number  50.
 Defaulting to unpruned grid for atomic number  50.
 Defaulting to unpruned grid for atomic number  50.
 Defaulting to unpruned grid for atomic number  50.
 Defaulting to unpruned grid for atomic number  50.
 Defaulting to unpruned grid for atomic number  50.
 Defaulting to unpruned grid for atomic number  50.
 Defaulting to unpruned grid for atomic number  50.
 Defaulting to unpruned grid for atomic number  50.
 Defaulting to unpruned grid for atomic number  50.
 Defaulting to unpruned grid for atomic number  50.
 Defaulting to unpruned grid for atomic number  50.
 Defaulting to unpruned grid for atomic number  50.
 Defaulting to unpruned grid for atomic number  50.
 Defaulting to unpruned grid for atomic number  50.
 Defaulting to unpruned grid for atomic number  50.
 Defaulting to unpruned grid for atomic number  50.
 FoFCou: FMM=F IPFlag=           0 FMFlag=      100000 FMFlg1=           0
         NFxFlg=           0 DoJE=T BraDBF=F KetDBF=T FulRan=T
         Omega=  0.000000  0.000000  1.000000  0.000000  0.000000 ICntrl=     500 IOpCl=  0
         NMat0=    1 NMatS0=    1 NMatT0=    0 NMatD0=    1 NMtDS0=    0 NMtDT0=    0
         I1Cent=           4 NGrid=           0.
 Petite list used in FoFCou.
 Initial guess orbital symmetries:
       Occupied  (A) (A) (A) (A) (A) (A) (A) (A) (A) (A) (A) (A)
                 (A) (A) (A) (A) (A) (A) (A) (A)
       Virtual   (A) (A) (A) (A) (A) (A) (A) (A) (A) (A) (A) (A)
                 (A) (A) (A) (A) (A) (A) (A) (A) (A) (A) (A) (A)
                 (A) (A) (A) (A) (A) (A) (A) (A) (A) (A) (A) (A)
                 (A) (A) (A)
 The electronic state of the initial guess is 1-A.
 Requested convergence on RMS density matrix=1.00D-08 within 128 cycles.
 Requested convergence on MAX density matrix=1.00D-06.
 Requested convergence on             energy=1.00D-06.
 No special actions if energy rises.
 Keep R1 ints in memory in canonical form, NReq=2397586.
 SCF Done:  E(RHF) =  -196.789456432     A.U. after   15 cycles
             Convg  =    0.5725D-08             -V/T =  2.0708
 ExpMin= 6.30D-02 ExpMax= 1.00D+04 ExpMxC= 3.50D+02 IAcc=3 IRadAn=         5 AccDes= 0.00D+00
 HarFok:  IExCor=  205 AccDes= 0.00D+00 IRadAn=         5 IDoV=-2
 ScaDFX=  1.000000  1.000000  1.000000  1.000000
 Defaulting to unpruned grid for atomic number  50.
 Defaulting to unpruned grid for atomic number  50.
 Defaulting to unpruned grid for atomic number  50.
 Defaulting to unpruned grid for atomic number  50.
 Defaulting to unpruned grid for atomic number  50.
 Defaulting to unpruned grid for atomic number  50.
 Defaulting to unpruned grid for atomic number  50.
 Defaulting to unpruned grid for atomic number  50.
 Defaulting to unpruned grid for atomic number  50.
 Defaulting to unpruned grid for atomic number  50.
 Defaulting to unpruned grid for atomic number  50.
 Defaulting to unpruned grid for atomic number  50.
 Defaulting to unpruned grid for atomic number  50.
 Defaulting to unpruned grid for atomic number  50.
 Defaulting to unpruned grid for atomic number  50.
 Defaulting to unpruned grid for atomic number  50.
 Defaulting to unpruned grid for atomic number  50.
 Defaulting to unpruned grid for atomic number  50.
 Defaulting to unpruned grid for atomic number  50.
 Defaulting to unpruned grid for atomic number  50.
 Range of M.O.s used for correlation:     4    59
 NBasis=    59 NAE=    20 NBE=    20 NFC=     3 NFV=     0
 NROrb=     56 NOA=    17 NOB=    17 NVA=    39 NVB=    39
 Fully direct method using O(ONN) memory.
 JobTyp=1 Pass  1:  I=   4 to  20 NPSUse= 20 ParTrn=T ParDer=T DoDerP=T.
 Spin components of T(2) and E(2):
     alpha-alpha T2 =       0.2094024541D-01 E2=     -0.4564537431D-01
     alpha-beta  T2 =       0.1595118156D+00 E2=     -0.3128223866D+00
     beta-beta   T2 =       0.2094024541D-01 E2=     -0.4564537431D-01
 ANorm=    0.1096080429D+01
 E2 =    -0.4041131352D+00 EUMP2 =    -0.19719356956763D+03
          IDoAtm=1111111111
          Differentiating once with respect to electric field.
                with respect to dipole field.
          Differentiating once with respect to nuclear coordinates.
          Keep R1 ints in memory in canonical form, NReq=2368185.
          There are     1 degrees of freedom in the 1st order CPHF.  IDoFFX=0.
 LinEq1:  Iter=  0 NonCon=     1 RMS=9.56D-03 Max=9.25D-02
 AX will form     1 AO Fock derivatives at one time.
 LinEq1:  Iter=  1 NonCon=     1 RMS=3.74D-03 Max=3.22D-02
 LinEq1:  Iter=  2 NonCon=     1 RMS=1.29D-03 Max=1.34D-02
 LinEq1:  Iter=  3 NonCon=     1 RMS=4.03D-04 Max=3.58D-03
 LinEq1:  Iter=  4 NonCon=     1 RMS=1.40D-04 Max=1.08D-03
 LinEq1:  Iter=  5 NonCon=     1 RMS=4.09D-05 Max=2.73D-04
 LinEq1:  Iter=  6 NonCon=     1 RMS=1.23D-05 Max=9.71D-05
 LinEq1:  Iter=  7 NonCon=     1 RMS=3.56D-06 Max=2.70D-05
 LinEq1:  Iter=  8 NonCon=     1 RMS=6.74D-07 Max=4.90D-06
 LinEq1:  Iter=  9 NonCon=     1 RMS=1.11D-07 Max=7.09D-07
 LinEq1:  Iter= 10 NonCon=     1 RMS=2.69D-08 Max=3.37D-07
 LinEq1:  Iter= 11 NonCon=     1 RMS=6.35D-09 Max=5.21D-08
 LinEq1:  Iter= 12 NonCon=     1 RMS=1.81D-09 Max=2.96D-08
 LinEq1:  Iter= 13 NonCon=     1 RMS=3.21D-10 Max=3.57D-09
 LinEq1:  Iter= 14 NonCon=     0 RMS=6.15D-11 Max=5.12D-10
 Linear equations converged to 1.000D-10 1.000D-09 after    14 iterations.
 End of Minotr Frequency-dependent properties file   721 does not exist.
 End of Minotr Frequency-dependent properties file   722 does not exist.

 **********************************************************************

            Population analysis using the SCF density.

 **********************************************************************

 Orbital symmetries:
       Occupied  (A) (A) (A) (A) (A) (A) (A) (A) (A) (A) (A) (A)
                 (A) (A) (A) (A) (A) (A) (A) (A)
       Virtual   (A) (A) (A) (A) (A) (A) (A) (A) (A) (A) (A) (A)
                 (A) (A) (A) (A) (A) (A) (A) (A) (A) (A) (A) (A)
                 (A) (A) (A) (A) (A) (A) (A) (A) (A) (A) (A) (A)
                 (A) (A) (A)
 The electronic state is 1-A.
 Alpha  occ. eigenvalues --  -26.31016 -11.37119 -11.30445  -1.62708  -1.10273
 Alpha  occ. eigenvalues --   -0.98527  -0.81229  -0.74298  -0.69023  -0.68177
 Alpha  occ. eigenvalues --   -0.64404  -0.61530  -0.54768  -0.47357  -0.46460
 Alpha  occ. eigenvalues --   -0.44585  -0.40670  -0.39837  -0.37529  -0.29017
 Alpha virt. eigenvalues --   -0.03756   0.07565   0.08021   0.12275   0.12826
 Alpha virt. eigenvalues --    0.15194   0.17599   0.20871   0.29217   0.29458
 Alpha virt. eigenvalues --    0.31886   0.32716   0.33744   0.33930   0.35704
 Alpha virt. eigenvalues --    0.40178   0.47120   0.48939   0.50128   0.59119
 Alpha virt. eigenvalues --    0.60512   0.64159   0.72360   0.73632   0.80249
 Alpha virt. eigenvalues --    0.87408   0.95464   1.16311   1.19737   1.22873
 Alpha virt. eigenvalues --    1.25218   1.27533   1.28566   1.30880   1.47540
 Alpha virt. eigenvalues --    2.35459  12.18334  13.41311  19.73228
          Condensed to atoms (all electrons):
              1          2          3          4          5          6
     1  C    4.924308   0.331620   0.010210   0.000000   0.000003  -0.039683
     2  C    0.331620   6.108059  -0.041627   0.000071   0.000074   0.147921
     3  H    0.010210  -0.041627   0.896380   0.000021   0.000007   0.352047
     4  H    0.000000   0.000071   0.000021   0.880330  -0.012876  -0.007604
     5  H    0.000003   0.000074   0.000007  -0.012876   0.858406  -0.008579
     6  Sn  -0.039683   0.147921   0.352047  -0.007604  -0.008579   2.706777
     7  Sn  -0.001427  -0.023937  -0.008985   0.330120   0.339679   0.215732
     8  Br  -0.106882   0.258214   0.000370   0.000001  -0.000053  -0.034185
     9  F    0.223727  -0.061523  -0.000006   0.000000   0.000000   0.001132
    10  H    0.391608  -0.039148  -0.001407   0.000000   0.000000  -0.000027
              7          8          9         10
     1  C   -0.001427  -0.106882   0.223727   0.391608
     2  C   -0.023937   0.258214  -0.061523  -0.039148
     3  H   -0.008985   0.000370  -0.000006  -0.001407
     4  H    0.330120   0.000001   0.000000   0.000000
     5  H    0.339679  -0.000053   0.000000   0.000000
     6  Sn   0.215732  -0.034185   0.001132  -0.000027
     7  Sn   2.742491   0.003814  -0.000001  -0.000108
     8  Br   0.003814   6.864479  -0.003867   0.001199
     9  F   -0.000001  -0.003867   9.210139  -0.041848
    10  H   -0.000108   0.001199  -0.041848   0.461031
 Mulliken atomic charges:
              1
     1  C    0.266515
     2  C   -0.679726
     3  H   -0.207010
     4  H   -0.190062
     5  H   -0.176662
     6  Sn   0.666468
     7  Sn   0.402621
     8  Br   0.016910
     9  F   -0.327754
    10  H    0.228700
 Sum of Mulliken atomic charges =   0.00000
 Mulliken charges with hydrogens summed into heavy atoms:
              1
     1  C    0.495215
     2  C   -0.679726
     6  Sn   0.459457
     7  Sn   0.035897
     8  Br   0.016910
     9  F   -0.327754
 Sum of Mulliken charges with hydrogens summed into heavy atoms =   0.00000
 Electronic spatial extent (au):  <R**2>=           1374.6944
 Charge=              0.0000 electrons
 Dipole moment (field-independent basis, Debye):
    X=              3.0325    Y=              2.2090    Z=              0.1352  Tot=              3.7542
 Quadrupole moment (field-independent basis, Debye-Ang):
   XX=            -79.5561   YY=            -64.7896   ZZ=            -68.1722
   XY=             -5.2153   XZ=              6.0485   YZ=             -2.0970
 Traceless Quadrupole moment (field-independent basis, Debye-Ang):
   XX=             -8.7168   YY=              6.0497   ZZ=              2.6671
   XY=             -5.2153   XZ=              6.0485   YZ=             -2.0970
 Octapole moment (field-independent basis, Debye-Ang**2):
  XXX=            142.6526  YYY=             -2.6935  ZZZ=            -15.0778  XYY=             19.8741
  XXY=             -3.3429  XXZ=             -3.9786  XZZ=             33.4260  YZZ=             -0.4448
  YYZ=             -3.7105  XYZ=             -7.2789
 Hexadecapole moment (field-independent basis, Debye-Ang**3):
 XXXX=          -2282.6900 YYYY=           -597.2406 ZZZZ=           -248.5983 XXXY=             17.5264
 XXXZ=            175.2712 YYYX=             24.2822 YYYZ=            -36.1042 ZZZX=             67.3629
 ZZZY=            -35.3973 XXYY=           -407.4607 XXZZ=           -386.9706 YYZZ=           -128.9892
 XXYZ=            -26.2936 YYXZ=             21.0780 ZZXY=              1.7255
 N-N= 1.337795935632D+02 E-N=-7.243290267697D+02  KE= 1.837703314846D+02
   1 Symmetry operations used in ECPInt.
 ECPInt:  NShTT=     630 NPrTT=    3262 LenC2=     623 LenP2D=    2673.
 LDataN:  DoStor=T MaxTD1= 5 Len=  102
 Calling FoFJK, ICntrl=      2127 FMM=F ISym2X=0 I1Cent= 0 IOpClX= 0 NMat=1 NMatS=1 NMatT=0.
 ***** Axes restored to original set *****
 -------------------------------------------------------------------
 Center     Atomic                   Forces (Hartrees/Bohr)
 Number     Number              X              Y              Z
 -------------------------------------------------------------------
      1        6          -0.015593953    0.018360062   -0.006611088
      2        6          -0.009220594   -0.038425803    0.015476387
      3        1          -0.003257106    0.002483276   -0.001168265
      4        1          -0.003917081   -0.000064888    0.000523067
      5        1           0.003394594   -0.002067019    0.001211149
      6       50          -0.001649220   -0.008341031   -0.002781413
      7       50           0.001834201    0.008831680    0.001641297
      8       35           0.005996851   -0.005520889    0.001842354
      9        9           0.034046156    0.014919466   -0.006478243
     10        1          -0.011633846    0.009825145   -0.003655244
 -------------------------------------------------------------------
 Cartesian Forces:  Max     0.038425803 RMS     0.012081579

 GradGradGradGradGradGradGradGradGradGradGradGradGradGradGradGradGradGrad
 Berny optimization.
 Internal  Forces:  Max     0.046720650 RMS     0.011135604
 Search for a local minimum.
 Step number   1 out of a maximum of   43
 All quantities printed in internal units (Hartrees-Bohrs-Radians)
 Mixed Optimization -- RFO/linear search
 Second derivative matrix not updated -- first step.
     Eigenvalues ---    0.00230   0.00230   0.01668   0.03056   0.03056
     Eigenvalues ---    0.03535   0.05099   0.06674   0.11770   0.11976
     Eigenvalues ---    0.12094   0.12215   0.12344   0.15222   0.16000
     Eigenvalues ---    0.16000   0.16000   0.22000   0.23587   0.24995
     Eigenvalues ---    0.25000   0.37135   0.50424   0.602481000.00000
     Eigenvalues --- 1000.000001000.000001000.000001000.000001000.00000
     Eigenvalues --- 1000.000001000.000001000.00000
 RFO step:  Lambda=-8.98144651D-03 EMin= 2.30000000D-03
 Linear search not attempted -- first point.
 Iteration  1 RMS(Cart)=  0.04388165 RMS(Int)=  0.00027483
 Iteration  2 RMS(Cart)=  0.00054230 RMS(Int)=  0.00003380
 Iteration  3 RMS(Cart)=  0.00000015 RMS(Int)=  0.00003380
 Variable       Old X    -DE/DX   Delta X   Delta X   Delta X     New X
                                 (Linear)    (Quad)   (Total)
    R1        2.50744   0.04672   0.00000   0.07641   0.07641   2.58385
    R2        2.59440   0.03772   0.00000   0.07350   0.07350   2.66790
    R3        2.02344   0.01564   0.00000   0.04112   0.04112   2.06456
    R4        4.06778   0.00289   0.00000   0.02184   0.02184   4.08962
    R5        3.72254   0.00833   0.00000   0.05164   0.05164   3.77418
    R6        3.27083   0.00403   0.00000   0.03130   0.03130   3.30213
    R7        3.26285   0.00374   0.00000   0.02878   0.02878   3.29163
    R8        3.25479   0.00388   0.00000   0.02958   0.02958   3.28438
    R9        5.33357  -0.00761   0.00000  -0.10056  -0.10056   5.23301
    A1        2.16933   0.00208   0.00000   0.00907   0.00906   2.17839
    A2        2.17711  -0.00183   0.00000  -0.00922  -0.00922   2.16789
    A3        1.93674  -0.00025   0.00000   0.00014   0.00014   1.93688
    A4        2.15607  -0.00412   0.00000  -0.01587  -0.01588   2.14019
    A5        2.07871   0.00337   0.00000   0.01306   0.01306   2.09177
    A6        2.04808   0.00076   0.00000   0.00297   0.00296   2.05104
    A7        1.70086   0.00231   0.00000   0.02485   0.02480   1.72566
    A8        1.98441  -0.00071   0.00000   0.00099   0.00095   1.98535
    A9        2.00503  -0.00088   0.00000  -0.00018  -0.00031   2.00473
   A10        1.76640   0.00253   0.00000   0.02183   0.02184   1.78824
   A11        1.91918  -0.00120   0.00000  -0.00366  -0.00365   1.91553
   A12        1.98192  -0.00211   0.00000  -0.00927  -0.00927   1.97265
    D1        3.10709   0.00027   0.00000   0.00831   0.00832   3.11541
    D2       -0.00640   0.00011   0.00000   0.00120   0.00119  -0.00522
    D3       -0.03871   0.00014   0.00000   0.00508   0.00509  -0.03363
    D4        3.13098  -0.00002   0.00000  -0.00204  -0.00205   3.12893
    D5        0.08439   0.00009   0.00000   0.00781   0.00776   0.09215
    D6        2.20296   0.00013   0.00000   0.02278   0.02285   2.22581
    D7       -3.08484   0.00029   0.00000   0.01496   0.01489  -3.06995
    D8       -0.96627   0.00033   0.00000   0.02994   0.02999  -0.93628
    D9        3.10982  -0.00040   0.00000  -0.00870  -0.00869   3.10113
   D10        1.14499  -0.00156   0.00000  -0.02800  -0.02799   1.11701
   D11       -1.23463   0.00151   0.00000   0.02365   0.02363  -1.21100
   D12        3.08372   0.00035   0.00000   0.00434   0.00434   3.08806
         Item               Value     Threshold  Converged?
 Maximum Force            0.046721     0.000450     NO 
 RMS     Force            0.011136     0.000300     NO 
 Maximum Displacement     0.126640     0.001800     NO 
 RMS     Displacement     0.044054     0.001200     NO 
 Predicted change in Energy=-4.643131D-03
 GradGradGradGradGradGradGradGradGradGradGradGradGradGradGradGradGradGrad

                          Input orientation:                          
 ---------------------------------------------------------------------
 Center     Atomic      Atomic             Coordinates (Angstroms)
 Number     Number       Type             X           Y           Z
 ---------------------------------------------------------------------
      1          6           0        2.202984    2.910179   -0.244633
      2          6           0        1.968761    1.649148    0.229170
      3          1           0       -0.944506    2.240907   -0.028183
      4          1           0       -2.142489   -2.077550   -0.216587
      5          1           0        0.459033   -2.825662   -0.033831
      6         50           0       -0.025243    0.892251    0.595943
      7         50           0       -0.540131   -1.535635   -0.632333
      8         35           0        3.504734    0.441626    0.643340
      9          9           0        3.482882    3.461088   -0.471617
     10          1           0        1.418113    3.624329   -0.504562
 ---------------------------------------------------------------------
                    Distance matrix (angstroms):
                    1          2          3          4          5
     1  C    0.000000
     2  C    1.367315   0.000000
     3  H    3.225131   2.983879   0.000000
     4  H    6.615237   5.566807   4.485502   0.000000
     5  H    5.998807   4.729944   5.257383   2.713114   0.000000
     6  Sn   3.121474   2.164132   1.747413   3.736663   3.801844
     7  Sn   5.238345   4.144824   3.845879   1.741857   1.738017
     8  Br   2.928618   1.997212   4.846038   6.243144   4.517746
     9  F    1.411793   2.463086   4.613809   7.898502   6.989889
    10  H    1.092518   2.177824   2.778986   6.728464   6.537875
                    6          7          8          9         10
     6  Sn   0.000000
     7  Sn   2.769188   0.000000
     8  Br   3.558939   4.679512   0.000000
     9  F    4.477225   6.416986   3.218812   0.000000
    10  H    3.280036   5.520532   3.975080   2.071473   0.000000
 Stoichiometry    C2H4BrFSn2
 Framework group  C1[X(C2H4BrFSn2)]
 Deg. of freedom    24
 Full point group                 C1      NOp   1
 Largest Abelian subgroup         C1      NOp   1
 Largest concise Abelian subgroup C1      NOp   1
                         Standard orientation:                         
 ---------------------------------------------------------------------
 Center     Atomic      Atomic             Coordinates (Angstroms)
 Number     Number       Type             X           Y           Z
 ---------------------------------------------------------------------
      1          6           0       -2.549377    1.249052    0.806901
      2          6           0       -1.667306    0.442699    0.142599
      3          1           0        0.279367    2.700730    0.266248
      4          1           0        3.872856    0.066383   -0.250255
      5          1           0        2.275281   -2.124434   -0.345468
      6         50           0        0.294181    1.117904   -0.473949
      7         50           0        2.354722   -0.535900    0.355212
      8         35           0       -2.188386   -1.427813   -0.324859
      9          9           0       -3.849307    0.866961    1.203574
     10          1           0       -2.335262    2.277420    1.107250
 ---------------------------------------------------------------------
 Rotational constants (GHZ):      1.0513481      0.3268857      0.2724751
 Standard basis: LANL2DZ (5D, 7F)
 There are    59 symmetry adapted basis functions of A   symmetry.
 Integral buffers will be    131072 words long.
 Raffenetti 1 integral format.
 Two-electron integral symmetry is turned on.
    59 basis functions,   127 primitive gaussians,    59 cartesian basis functions
    20 alpha electrons       20 beta electrons
       nuclear repulsion energy       131.3852936901 Hartrees.
 NAtoms=   10 NActive=   10 NUniq=   10 SFac= 7.50D-01 NAtFMM=   80 NAOKFM=F Big=F
 One-electron integrals computed using PRISM.
   1 Symmetry operations used in ECPInt.
 ECPInt:  NShTT=     630 NPrTT=    3262 LenC2=     623 LenP2D=    2670.
 LDataN:  DoStor=T MaxTD1= 4 Len=   56
 NBasis=    59 RedAO= T  NBF=    59
 NBsUse=    59 1.00D-06 NBFU=    59
 Initial guess read from the read-write file.
 B after Tr=     0.000000    0.000000    0.000000
         Rot=    1.000000    0.000000    0.000000    0.000000 Ang=   0.00 deg.
 Initial guess orbital symmetries:
       Occupied  (A) (A) (A) (A) (A) (A) (A) (A) (A) (A) (A) (A)
                 (A) (A) (A) (A) (A) (A) (A) (A)
       Virtual   (A) (A) (A) (A) (A) (A) (A) (A) (A) (A) (A) (A)
                 (A) (A) (A) (A) (A) (A) (A) (A) (A) (A) (A) (A)
                 (A) (A) (A) (A) (A) (A) (A) (A) (A) (A) (A) (A)
                 (A) (A) (A)
 Harris functional with IExCor=  205 diagonalized for initial guess.
 ExpMin= 6.30D-02 ExpMax= 1.00D+04 ExpMxC= 3.50D+02 IAcc=2 IRadAn=         0 AccDes= 0.00D+00
 HarFok:  IExCor=  205 AccDes= 0.00D+00 IRadAn=         0 IDoV= 1
 ScaDFX=  1.000000  1.000000  1.000000  1.000000
 Defaulting to unpruned grid for atomic number  50.
 Defaulting to unpruned grid for atomic number  50.
 Defaulting to unpruned grid for atomic number  50.
 Defaulting to unpruned grid for atomic number  50.
 Defaulting to unpruned grid for atomic number  50.
 Defaulting to unpruned grid for atomic number  50.
 Defaulting to unpruned grid for atomic number  50.
 Defaulting to unpruned grid for atomic number  50.
 Defaulting to unpruned grid for atomic number  50.
 Defaulting to unpruned grid for atomic number  50.
 Defaulting to unpruned grid for atomic number  50.
 Defaulting to unpruned grid for atomic number  50.
 Defaulting to unpruned grid for atomic number  50.
 Defaulting to unpruned grid for atomic number  50.
 Defaulting to unpruned grid for atomic number  50.
 Defaulting to unpruned grid for atomic number  50.
 Defaulting to unpruned grid for atomic number  50.
 Defaulting to unpruned grid for atomic number  50.
 Defaulting to unpruned grid for atomic number  50.
 Defaulting to unpruned grid for atomic number  50.
 FoFCou: FMM=F IPFlag=           0 FMFlag=      100000 FMFlg1=           0
         NFxFlg=           0 DoJE=T BraDBF=F KetDBF=T FulRan=T
         Omega=  0.000000  0.000000  1.000000  0.000000  0.000000 ICntrl=     500 IOpCl=  0
         NMat0=    1 NMatS0=    1 NMatT0=    0 NMatD0=    1 NMtDS0=    0 NMtDT0=    0
         I1Cent=           4 NGrid=           0.
 Petite list used in FoFCou.
 Requested convergence on RMS density matrix=1.00D-08 within 128 cycles.
 Requested convergence on MAX density matrix=1.00D-06.
 Requested convergence on             energy=1.00D-06.
 No special actions if energy rises.
 Keep R1 ints in memory in canonical form, NReq=2397586.
 SCF Done:  E(RHF) =  -196.785020162     A.U. after   13 cycles
             Convg  =    0.6524D-08             -V/T =  2.0726
 ExpMin= 6.30D-02 ExpMax= 1.00D+04 ExpMxC= 3.50D+02 IAcc=3 IRadAn=         5 AccDes= 0.00D+00
 HarFok:  IExCor=  205 AccDes= 0.00D+00 IRadAn=         5 IDoV=-2
 ScaDFX=  1.000000  1.000000  1.000000  1.000000
 Defaulting to unpruned grid for atomic number  50.
 Defaulting to unpruned grid for atomic number  50.
 Defaulting to unpruned grid for atomic number  50.
 Defaulting to unpruned grid for atomic number  50.
 Defaulting to unpruned grid for atomic number  50.
 Defaulting to unpruned grid for atomic number  50.
 Defaulting to unpruned grid for atomic number  50.
 Defaulting to unpruned grid for atomic number  50.
 Defaulting to unpruned grid for atomic number  50.
 Defaulting to unpruned grid for atomic number  50.
 Defaulting to unpruned grid for atomic number  50.
 Defaulting to unpruned grid for atomic number  50.
 Defaulting to unpruned grid for atomic number  50.
 Defaulting to unpruned grid for atomic number  50.
 Defaulting to unpruned grid for atomic number  50.
 Defaulting to unpruned grid for atomic number  50.
 Defaulting to unpruned grid for atomic number  50.
 Defaulting to unpruned grid for atomic number  50.
 Defaulting to unpruned grid for atomic number  50.
 Defaulting to unpruned grid for atomic number  50.
 Range of M.O.s used for correlation:     4    59
 NBasis=    59 NAE=    20 NBE=    20 NFC=     3 NFV=     0
 NROrb=     56 NOA=    17 NOB=    17 NVA=    39 NVB=    39
 Fully direct method using O(ONN) memory.
 JobTyp=1 Pass  1:  I=   4 to  20 NPSUse= 20 ParTrn=T ParDer=T DoDerP=T.
 Spin components of T(2) and E(2):
     alpha-alpha T2 =       0.2184871792D-01 E2=     -0.4671899886D-01
     alpha-beta  T2 =       0.1662933415D+00 E2=     -0.3197306994D+00
     beta-beta   T2 =       0.2184871792D-01 E2=     -0.4671899886D-01
 ANorm=    0.1099995808D+01
 E2 =    -0.4131686971D+00 EUMP2 =    -0.19719818885867D+03
          IDoAtm=1111111111
          Differentiating once with respect to electric field.
                with respect to dipole field.
          Differentiating once with respect to nuclear coordinates.
          Keep R1 ints in memory in canonical form, NReq=2368185.
          There are     1 degrees of freedom in the 1st order CPHF.  IDoFFX=0.
 LinEq1:  Iter=  0 NonCon=     1 RMS=9.76D-03 Max=8.96D-02
 AX will form     1 AO Fock derivatives at one time.
 LinEq1:  Iter=  1 NonCon=     1 RMS=3.97D-03 Max=3.32D-02
 LinEq1:  Iter=  2 NonCon=     1 RMS=1.32D-03 Max=1.50D-02
 LinEq1:  Iter=  3 NonCon=     1 RMS=4.36D-04 Max=4.10D-03
 LinEq1:  Iter=  4 NonCon=     1 RMS=1.54D-04 Max=1.24D-03
 LinEq1:  Iter=  5 NonCon=     1 RMS=4.70D-05 Max=3.19D-04
 LinEq1:  Iter=  6 NonCon=     1 RMS=1.44D-05 Max=1.12D-04
 LinEq1:  Iter=  7 NonCon=     1 RMS=4.06D-06 Max=2.99D-05
 LinEq1:  Iter=  8 NonCon=     1 RMS=7.81D-07 Max=5.52D-06
 LinEq1:  Iter=  9 NonCon=     1 RMS=1.35D-07 Max=8.73D-07
 LinEq1:  Iter= 10 NonCon=     1 RMS=3.10D-08 Max=3.09D-07
 LinEq1:  Iter= 11 NonCon=     1 RMS=7.17D-09 Max=8.63D-08
 LinEq1:  Iter= 12 NonCon=     1 RMS=1.84D-09 Max=1.50D-08
 LinEq1:  Iter= 13 NonCon=     1 RMS=3.45D-10 Max=2.49D-09
 LinEq1:  Iter= 14 NonCon=     0 RMS=5.75D-11 Max=4.35D-10
 Linear equations converged to 1.000D-10 1.000D-09 after    14 iterations.
 End of Minotr Frequency-dependent properties file   721 does not exist.
 End of Minotr Frequency-dependent properties file   722 does not exist.
   1 Symmetry operations used in ECPInt.
 ECPInt:  NShTT=     630 NPrTT=    3262 LenC2=     623 LenP2D=    2670.
 LDataN:  DoStor=T MaxTD1= 5 Len=  102
 Calling FoFJK, ICntrl=      2127 FMM=F ISym2X=0 I1Cent= 0 IOpClX= 0 NMat=1 NMatS=1 NMatT=0.
 ***** Axes restored to original set *****
 -------------------------------------------------------------------
 Center     Atomic                   Forces (Hartrees/Bohr)
 Number     Number              X              Y              Z
 -------------------------------------------------------------------
      1        6          -0.010395954   -0.004741003    0.001962661
      2        6           0.003120901   -0.000574918    0.000316729
      3        1           0.000032964   -0.000683574    0.000488557
      4        1           0.000258693    0.000784359   -0.000395482
      5        1           0.000287894    0.000891381   -0.000332777
      6       50          -0.000484644    0.000095049   -0.002006661
      7       50          -0.000240581   -0.000176323    0.001693497
      8       35          -0.001077184    0.001735002   -0.000709091
      9        9           0.007988863    0.002331511   -0.000993249
     10        1           0.000509048    0.000338517   -0.000024183
 -------------------------------------------------------------------
 Cartesian Forces:  Max     0.010395954 RMS     0.002766642

 GradGradGradGradGradGradGradGradGradGradGradGradGradGradGradGradGradGrad
 Berny optimization.
 Using GEDIIS/GDIIS optimizer.
 Internal  Forces:  Max     0.008312002 RMS     0.001767551
 Search for a local minimum.
 Step number   2 out of a maximum of   43
 All quantities printed in internal units (Hartrees-Bohrs-Radians)
 Mixed Optimization -- RFO/linear search
 Update second derivatives using D2CorX and points    1    2
 DE= -4.62D-03 DEPred=-4.64D-03 R= 9.95D-01
 SS=  1.41D+00  RLast= 1.84D-01 DXNew= 5.0454D-01 5.5237D-01
 Trust test= 9.95D-01 RLast= 1.84D-01 DXMaxT set to 5.05D-01
 Use linear search instead of GDIIS.
     Eigenvalues ---    0.00230   0.00230   0.01676   0.03056   0.03056
     Eigenvalues ---    0.03390   0.05081   0.06528   0.11865   0.12012
     Eigenvalues ---    0.12135   0.12285   0.12416   0.15646   0.15892
     Eigenvalues ---    0.16000   0.16063   0.22149   0.23533   0.24843
     Eigenvalues ---    0.25141   0.37291   0.44733   0.650911000.00000
     Eigenvalues --- 1000.000001000.000001000.000001000.000001000.00000
     Eigenvalues --- 1000.000001000.000001000.00000
 RFO step:  Lambda=-4.41333598D-04 EMin= 2.29940072D-03
 Quartic linear search produced a step of  0.06571.
 Iteration  1 RMS(Cart)=  0.06579396 RMS(Int)=  0.00107568
 Iteration  2 RMS(Cart)=  0.00165996 RMS(Int)=  0.00002757
 Iteration  3 RMS(Cart)=  0.00000091 RMS(Int)=  0.00002757
 Variable       Old X    -DE/DX   Delta X   Delta X   Delta X     New X
                                 (Linear)    (Quad)   (Total)
    R1        2.58385  -0.00256   0.00502  -0.00642  -0.00140   2.58245
    R2        2.66790   0.00831   0.00483   0.01575   0.02058   2.68848
    R3        2.06456  -0.00014   0.00270  -0.00138   0.00133   2.06589
    R4        4.08962  -0.00028   0.00144  -0.00280  -0.00136   4.08825
    R5        3.77418  -0.00202   0.00339  -0.01517  -0.01177   3.76241
    R6        3.30213  -0.00072   0.00206  -0.00695  -0.00490   3.29723
    R7        3.29163  -0.00058   0.00189  -0.00559  -0.00370   3.28793
    R8        3.28438  -0.00061   0.00194  -0.00586  -0.00391   3.28046
    R9        5.23301  -0.00180  -0.00661  -0.02730  -0.03390   5.19910
    A1        2.17839  -0.00232   0.00060  -0.01139  -0.01079   2.16760
    A2        2.16789   0.00176  -0.00061   0.00982   0.00922   2.17711
    A3        1.93688   0.00055   0.00001   0.00158   0.00159   1.93847
    A4        2.14019  -0.00079  -0.00104  -0.00303  -0.00407   2.13612
    A5        2.09177  -0.00103   0.00086  -0.00468  -0.00382   2.08795
    A6        2.05104   0.00182   0.00019   0.00768   0.00788   2.05892
    A7        1.72566   0.00060   0.00163   0.01163   0.01318   1.73884
    A8        1.98535   0.00003   0.00006   0.00307   0.00308   1.98844
    A9        2.00473   0.00001  -0.00002   0.00643   0.00630   2.01103
   A10        1.78824   0.00136   0.00144   0.01450   0.01594   1.80418
   A11        1.91553  -0.00059  -0.00024  -0.00087  -0.00111   1.91442
   A12        1.97265  -0.00096  -0.00061  -0.00342  -0.00403   1.96863
    D1        3.11541  -0.00001   0.00055  -0.00083  -0.00028   3.11513
    D2       -0.00522  -0.00001   0.00008   0.00014   0.00021  -0.00500
    D3       -0.03363   0.00008   0.00033   0.00244   0.00278  -0.03085
    D4        3.12893   0.00009  -0.00013   0.00341   0.00327   3.13220
    D5        0.09215   0.00000   0.00051   0.06838   0.06886   0.16100
    D6        2.22581   0.00040   0.00150   0.08462   0.08616   2.31197
    D7       -3.06995  -0.00004   0.00098   0.06730   0.06824  -3.00171
    D8       -0.93628   0.00036   0.00197   0.08354   0.08554  -0.85075
    D9        3.10113  -0.00003  -0.00057  -0.00479  -0.00537   3.09576
   D10        1.11701  -0.00078  -0.00184  -0.02012  -0.02197   1.09503
   D11       -1.21100   0.00077   0.00155   0.01668   0.01825  -1.19275
   D12        3.08806   0.00002   0.00028   0.00135   0.00165   3.08971
         Item               Value     Threshold  Converged?
 Maximum Force            0.008312     0.000450     NO 
 RMS     Force            0.001768     0.000300     NO 
 Maximum Displacement     0.203612     0.001800     NO 
 RMS     Displacement     0.065641     0.001200     NO 
 Predicted change in Energy=-2.274189D-04
 GradGradGradGradGradGradGradGradGradGradGradGradGradGradGradGradGradGrad

                          Input orientation:                          
 ---------------------------------------------------------------------
 Center     Atomic      Atomic             Coordinates (Angstroms)
 Number     Number       Type             X           Y           Z
 ---------------------------------------------------------------------
      1          6           0        2.204014    2.922042   -0.213221
      2          6           0        1.961159    1.642222    0.199830
      3          1           0       -0.963669    2.225842   -0.103780
      4          1           0       -2.141462   -2.078171   -0.198622
      5          1           0        0.475340   -2.811652    0.029712
      6         50           0       -0.039754    0.896513    0.547115
      7         50           0       -0.534364   -1.551378   -0.607246
      8         35           0        3.488312    0.409714    0.535593
      9          9           0        3.503632    3.461390   -0.423275
     10          1           0        1.430930    3.664159   -0.429399
 ---------------------------------------------------------------------
                    Distance matrix (angstroms):
                    1          2          3          4          5
     1  C    0.000000
     2  C    1.366575   0.000000
     3  H    3.245133   2.997901   0.000000
     4  H    6.624614   5.552620   4.463263   0.000000
     5  H    5.993544   4.698254   5.240697   2.727229   0.000000
     6  Sn   3.116949   2.163409   1.744821   3.717801   3.779353
     7  Sn   5.259797   4.132565   3.834732   1.739898   1.735946
     8  Br   2.919236   1.990982   4.850491   6.198629   4.439720
     9  F    1.422682   2.465128   4.646013   7.912287   6.980459
    10  H    1.093220   2.182957   2.812275   6.766801   6.562016
                    6          7          8          9         10
     6  Sn   0.000000
     7  Sn   2.751247   0.000000
     8  Br   3.561510   4.618862   0.000000
     9  F    4.480606   6.439496   3.198811   0.000000
    10  H    3.282736   5.576364   3.969313   2.082606   0.000000
 Stoichiometry    C2H4BrFSn2
 Framework group  C1[X(C2H4BrFSn2)]
 Deg. of freedom    24
 Full point group                 C1      NOp   1
 Largest Abelian subgroup         C1      NOp   1
 Largest concise Abelian subgroup C1      NOp   1
                         Standard orientation:                         
 ---------------------------------------------------------------------
 Center     Atomic      Atomic             Coordinates (Angstroms)
 Number     Number       Type             X           Y           Z
 ---------------------------------------------------------------------
      1          6           0       -2.591291    1.247490    0.731780
      2          6           0       -1.670603    0.439558    0.125887
      3          1           0        0.287114    2.698244    0.356301
      4          1           0        3.859185    0.088164   -0.234047
      5          1           0        2.243098   -2.100087   -0.427952
      6         50           0        0.298942    1.140863   -0.430354
      7         50           0        2.338611   -0.541488    0.330436
      8         35           0       -2.146331   -1.445435   -0.303644
      9          9           0       -3.906346    0.835902    1.085688
     10          1           0       -2.416977    2.289721    1.011958
 ---------------------------------------------------------------------
 Rotational constants (GHZ):      1.0616081      0.3324802      0.2727898
 Standard basis: LANL2DZ (5D, 7F)
 There are    59 symmetry adapted basis functions of A   symmetry.
 Integral buffers will be    131072 words long.
 Raffenetti 1 integral format.
 Two-electron integral symmetry is turned on.
    59 basis functions,   127 primitive gaussians,    59 cartesian basis functions
    20 alpha electrons       20 beta electrons
       nuclear repulsion energy       131.3983867522 Hartrees.
 NAtoms=   10 NActive=   10 NUniq=   10 SFac= 7.50D-01 NAtFMM=   80 NAOKFM=F Big=F
 One-electron integrals computed using PRISM.
   1 Symmetry operations used in ECPInt.
 ECPInt:  NShTT=     630 NPrTT=    3262 LenC2=     623 LenP2D=    2669.
 LDataN:  DoStor=T MaxTD1= 4 Len=   56
 NBasis=    59 RedAO= T  NBF=    59
 NBsUse=    59 1.00D-06 NBFU=    59
 Initial guess read from the read-write file.
 B after Tr=     0.000000    0.000000    0.000000
         Rot=    1.000000    0.000000    0.000000    0.000000 Ang=   0.00 deg.
 Initial guess orbital symmetries:
       Occupied  (A) (A) (A) (A) (A) (A) (A) (A) (A) (A) (A) (A)
                 (A) (A) (A) (A) (A) (A) (A) (A)
       Virtual   (A) (A) (A) (A) (A) (A) (A) (A) (A) (A) (A) (A)
                 (A) (A) (A) (A) (A) (A) (A) (A) (A) (A) (A) (A)
                 (A) (A) (A) (A) (A) (A) (A) (A) (A) (A) (A) (A)
                 (A) (A) (A)
 Harris functional with IExCor=  205 diagonalized for initial guess.
 ExpMin= 6.30D-02 ExpMax= 1.00D+04 ExpMxC= 3.50D+02 IAcc=2 IRadAn=         0 AccDes= 0.00D+00
 HarFok:  IExCor=  205 AccDes= 0.00D+00 IRadAn=         0 IDoV= 1
 ScaDFX=  1.000000  1.000000  1.000000  1.000000
 Defaulting to unpruned grid for atomic number  50.
 Defaulting to unpruned grid for atomic number  50.
 Defaulting to unpruned grid for atomic number  50.
 Defaulting to unpruned grid for atomic number  50.
 Defaulting to unpruned grid for atomic number  50.
 Defaulting to unpruned grid for atomic number  50.
 Defaulting to unpruned grid for atomic number  50.
 Defaulting to unpruned grid for atomic number  50.
 Defaulting to unpruned grid for atomic number  50.
 Defaulting to unpruned grid for atomic number  50.
 Defaulting to unpruned grid for atomic number  50.
 Defaulting to unpruned grid for atomic number  50.
 Defaulting to unpruned grid for atomic number  50.
 Defaulting to unpruned grid for atomic number  50.
 Defaulting to unpruned grid for atomic number  50.
 Defaulting to unpruned grid for atomic number  50.
 Defaulting to unpruned grid for atomic number  50.
 Defaulting to unpruned grid for atomic number  50.
 Defaulting to unpruned grid for atomic number  50.
 Defaulting to unpruned grid for atomic number  50.
 FoFCou: FMM=F IPFlag=           0 FMFlag=      100000 FMFlg1=           0
         NFxFlg=           0 DoJE=T BraDBF=F KetDBF=T FulRan=T
         Omega=  0.000000  0.000000  1.000000  0.000000  0.000000 ICntrl=     500 IOpCl=  0
         NMat0=    1 NMatS0=    1 NMatT0=    0 NMatD0=    1 NMtDS0=    0 NMtDT0=    0
         I1Cent=           4 NGrid=           0.
 Petite list used in FoFCou.
 Requested convergence on RMS density matrix=1.00D-08 within 128 cycles.
 Requested convergence on MAX density matrix=1.00D-06.
 Requested convergence on             energy=1.00D-06.
 No special actions if energy rises.
 Keep R1 ints in memory in canonical form, NReq=2397586.
 SCF Done:  E(RHF) =  -196.784330508     A.U. after   12 cycles
             Convg  =    0.5007D-08             -V/T =  2.0727
 ExpMin= 6.30D-02 ExpMax= 1.00D+04 ExpMxC= 3.50D+02 IAcc=3 IRadAn=         5 AccDes= 0.00D+00
 HarFok:  IExCor=  205 AccDes= 0.00D+00 IRadAn=         5 IDoV=-2
 ScaDFX=  1.000000  1.000000  1.000000  1.000000
 Defaulting to unpruned grid for atomic number  50.
 Defaulting to unpruned grid for atomic number  50.
 Defaulting to unpruned grid for atomic number  50.
 Defaulting to unpruned grid for atomic number  50.
 Defaulting to unpruned grid for atomic number  50.
 Defaulting to unpruned grid for atomic number  50.
 Defaulting to unpruned grid for atomic number  50.
 Defaulting to unpruned grid for atomic number  50.
 Defaulting to unpruned grid for atomic number  50.
 Defaulting to unpruned grid for atomic number  50.
 Defaulting to unpruned grid for atomic number  50.
 Defaulting to unpruned grid for atomic number  50.
 Defaulting to unpruned grid for atomic number  50.
 Defaulting to unpruned grid for atomic number  50.
 Defaulting to unpruned grid for atomic number  50.
 Defaulting to unpruned grid for atomic number  50.
 Defaulting to unpruned grid for atomic number  50.
 Defaulting to unpruned grid for atomic number  50.
 Defaulting to unpruned grid for atomic number  50.
 Defaulting to unpruned grid for atomic number  50.
 Range of M.O.s used for correlation:     4    59
 NBasis=    59 NAE=    20 NBE=    20 NFC=     3 NFV=     0
 NROrb=     56 NOA=    17 NOB=    17 NVA=    39 NVB=    39
 Fully direct method using O(ONN) memory.
 JobTyp=1 Pass  1:  I=   4 to  20 NPSUse= 20 ParTrn=T ParDer=T DoDerP=T.
 Spin components of T(2) and E(2):
     alpha-alpha T2 =       0.2193941821D-01 E2=     -0.4685390843D-01
     alpha-beta  T2 =       0.1669124655D+00 E2=     -0.3204277552D+00
     beta-beta   T2 =       0.2193941821D-01 E2=     -0.4685390843D-01
 ANorm=    0.1100359624D+01
 E2 =    -0.4141355720D+00 EUMP2 =    -0.19719846608039D+03
          IDoAtm=1111111111
          Differentiating once with respect to electric field.
                with respect to dipole field.
          Differentiating once with respect to nuclear coordinates.
          Keep R1 ints in memory in canonical form, NReq=2368185.
          There are     1 degrees of freedom in the 1st order CPHF.  IDoFFX=0.
 LinEq1:  Iter=  0 NonCon=     1 RMS=9.75D-03 Max=8.87D-02
 AX will form     1 AO Fock derivatives at one time.
 LinEq1:  Iter=  1 NonCon=     1 RMS=3.98D-03 Max=3.33D-02
 LinEq1:  Iter=  2 NonCon=     1 RMS=1.32D-03 Max=1.50D-02
 LinEq1:  Iter=  3 NonCon=     1 RMS=4.27D-04 Max=4.15D-03
 LinEq1:  Iter=  4 NonCon=     1 RMS=1.54D-04 Max=1.23D-03
 LinEq1:  Iter=  5 NonCon=     1 RMS=4.71D-05 Max=3.18D-04
 LinEq1:  Iter=  6 NonCon=     1 RMS=1.45D-05 Max=1.14D-04
 LinEq1:  Iter=  7 NonCon=     1 RMS=4.14D-06 Max=2.86D-05
 LinEq1:  Iter=  8 NonCon=     1 RMS=8.07D-07 Max=5.51D-06
 LinEq1:  Iter=  9 NonCon=     1 RMS=1.55D-07 Max=1.63D-06
 LinEq1:  Iter= 10 NonCon=     1 RMS=3.88D-08 Max=4.17D-07
 LinEq1:  Iter= 11 NonCon=     1 RMS=1.03D-08 Max=1.11D-07
 LinEq1:  Iter= 12 NonCon=     1 RMS=2.27D-09 Max=1.36D-08
 LinEq1:  Iter= 13 NonCon=     1 RMS=3.93D-10 Max=3.04D-09
 LinEq1:  Iter= 14 NonCon=     0 RMS=6.86D-11 Max=6.06D-10
 Linear equations converged to 1.000D-10 1.000D-09 after    14 iterations.
 End of Minotr Frequency-dependent properties file   721 does not exist.
 End of Minotr Frequency-dependent properties file   722 does not exist.
   1 Symmetry operations used in ECPInt.
 ECPInt:  NShTT=     630 NPrTT=    3262 LenC2=     623 LenP2D=    2669.
 LDataN:  DoStor=T MaxTD1= 5 Len=  102
 Calling FoFJK, ICntrl=      2127 FMM=F ISym2X=0 I1Cent= 0 IOpClX= 0 NMat=1 NMatS=1 NMatT=0.
 ***** Axes restored to original set *****
 -------------------------------------------------------------------
 Center     Atomic                   Forces (Hartrees/Bohr)
 Number     Number              X              Y              Z
 -------------------------------------------------------------------
      1        6          -0.004847172   -0.002349393    0.000898339
      2        6           0.001787733    0.000495961   -0.000140999
      3        1           0.000182244   -0.000222981    0.000519926
      4        1           0.000259970    0.000441956   -0.000216278
      5        1           0.000059271    0.000546958   -0.000192074
      6       50          -0.000147853    0.000667566   -0.000864624
      7       50          -0.000278003   -0.000935910    0.000537753
      8       35          -0.000354107    0.000411509   -0.000094313
      9        9           0.002042720    0.000896288   -0.000266386
     10        1           0.001295197    0.000048044   -0.000181345
 -------------------------------------------------------------------
 Cartesian Forces:  Max     0.004847172 RMS     0.001208400

 GradGradGradGradGradGradGradGradGradGradGradGradGradGradGradGradGradGrad
 Berny optimization.
 Using GEDIIS/GDIIS optimizer.
 Internal  Forces:  Max     0.002245140 RMS     0.000679867
 Search for a local minimum.
 Step number   3 out of a maximum of   43
 All quantities printed in internal units (Hartrees-Bohrs-Radians)
 Mixed Optimization -- En-DIIS/RFO-DIIS
 Update second derivatives using D2CorX and points    1    2    3
 DE= -2.77D-04 DEPred=-2.27D-04 R= 1.22D+00
 SS=  1.41D+00  RLast= 1.66D-01 DXNew= 8.4853D-01 4.9809D-01
 Trust test= 1.22D+00 RLast= 1.66D-01 DXMaxT set to 5.05D-01
 Use linear search instead of GDIIS.
     Eigenvalues ---    0.00230   0.00280   0.01667   0.02823   0.03057
     Eigenvalues ---    0.03075   0.04861   0.06363   0.11934   0.12029
     Eigenvalues ---    0.12135   0.12255   0.12402   0.14297   0.15720
     Eigenvalues ---    0.16000   0.16227   0.21462   0.23469   0.24291
     Eigenvalues ---    0.25510   0.37676   0.41209   0.650841000.00000
     Eigenvalues --- 1000.000001000.000001000.000001000.000001000.00000
     Eigenvalues --- 1000.000001000.000001000.00000
 RFO step:  Lambda=-1.02136791D-04 EMin= 2.29998329D-03
 Quartic linear search produced a step of  0.26201.
 Iteration  1 RMS(Cart)=  0.02902817 RMS(Int)=  0.00029740
 Iteration  2 RMS(Cart)=  0.00032764 RMS(Int)=  0.00003340
 Iteration  3 RMS(Cart)=  0.00000002 RMS(Int)=  0.00003340
 Variable       Old X    -DE/DX   Delta X   Delta X   Delta X     New X
                                 (Linear)    (Quad)   (Total)
    R1        2.58245  -0.00172  -0.00037  -0.00152  -0.00189   2.58057
    R2        2.68848   0.00225   0.00539   0.00653   0.01192   2.70040
    R3        2.06589  -0.00085   0.00035  -0.00183  -0.00148   2.06440
    R4        4.08825  -0.00028  -0.00036  -0.00211  -0.00246   4.08579
    R5        3.76241  -0.00054  -0.00308  -0.00246  -0.00554   3.75687
    R6        3.29723  -0.00046  -0.00128  -0.00368  -0.00496   3.29227
    R7        3.28793  -0.00042  -0.00097  -0.00339  -0.00436   3.28357
    R8        3.28046  -0.00043  -0.00103  -0.00340  -0.00443   3.27604
    R9        5.19910  -0.00011  -0.00888  -0.00358  -0.01246   5.18664
    A1        2.16760  -0.00064  -0.00283  -0.00286  -0.00569   2.16191
    A2        2.17711   0.00134   0.00241   0.00910   0.01152   2.18862
    A3        1.93847  -0.00070   0.00042  -0.00624  -0.00583   1.93264
    A4        2.13612  -0.00090  -0.00107  -0.00477  -0.00584   2.13028
    A5        2.08795   0.00028  -0.00100   0.00189   0.00089   2.08884
    A6        2.05892   0.00063   0.00206   0.00284   0.00491   2.06383
    A7        1.73884   0.00007   0.00345   0.00627   0.00960   1.74844
    A8        1.98844   0.00004   0.00081   0.00238   0.00311   1.99155
    A9        2.01103   0.00035   0.00165   0.00848   0.01002   2.02105
   A10        1.80418   0.00070   0.00418   0.00812   0.01230   1.81647
   A11        1.91442  -0.00037  -0.00029  -0.00148  -0.00177   1.91265
   A12        1.96863  -0.00056  -0.00105  -0.00307  -0.00412   1.96450
    D1        3.11513  -0.00010  -0.00007  -0.00442  -0.00450   3.11064
    D2       -0.00500  -0.00007   0.00006  -0.00216  -0.00211  -0.00711
    D3       -0.03085  -0.00012   0.00073  -0.00555  -0.00482  -0.03567
    D4        3.13220  -0.00009   0.00086  -0.00329  -0.00243   3.12977
    D5        0.16100  -0.00033   0.01804  -0.06349  -0.04547   0.11553
    D6        2.31197   0.00016   0.02257  -0.04812  -0.02552   2.28645
    D7       -3.00171  -0.00036   0.01788  -0.06573  -0.04787  -3.04958
    D8       -0.85075   0.00012   0.02241  -0.05036  -0.02792  -0.87867
    D9        3.09576  -0.00002  -0.00141  -0.00032  -0.00176   3.09400
   D10        1.09503  -0.00032  -0.00576  -0.00760  -0.01339   1.08165
   D11       -1.19275   0.00034   0.00478   0.01551   0.02032  -1.17243
   D12        3.08971   0.00004   0.00043   0.00823   0.00869   3.09840
         Item               Value     Threshold  Converged?
 Maximum Force            0.002245     0.000450     NO 
 RMS     Force            0.000680     0.000300     NO 
 Maximum Displacement     0.083604     0.001800     NO 
 RMS     Displacement     0.029051     0.001200     NO 
 Predicted change in Energy=-6.473788D-05
 GradGradGradGradGradGradGradGradGradGradGradGradGradGradGradGradGradGrad

                          Input orientation:                          
 ---------------------------------------------------------------------
 Center     Atomic      Atomic             Coordinates (Angstroms)
 Number     Number       Type             X           Y           Z
 ---------------------------------------------------------------------
      1          6           0        2.197860    2.910135   -0.226852
      2          6           0        1.963769    1.636528    0.206651
      3          1           0       -0.972333    2.227859   -0.059539
      4          1           0       -2.143748   -2.066961   -0.202863
      5          1           0        0.484676   -2.800615    0.004499
      6         50           0       -0.036406    0.890128    0.548543
      7         50           0       -0.538208   -1.545000   -0.613983
      8         35           0        3.496250    0.426173    0.579318
      9          9           0        3.503206    3.454816   -0.430339
     10          1           0        1.429072    3.647616   -0.468726
 ---------------------------------------------------------------------
                    Distance matrix (angstroms):
                    1          2          3          4          5
     1  C    0.000000
     2  C    1.365576   0.000000
     3  H    3.247093   3.006863   0.000000
     4  H    6.604666   5.545739   4.454014   0.000000
     5  H    5.966672   4.681540   5.235697   2.736761   0.000000
     6  Sn   3.110242   2.162105   1.742196   3.708083   3.766841
     7  Sn   5.242534   4.129824   3.838012   1.737591   1.733603
     8  Br   2.916470   1.988049   4.860293   6.215875   4.451085
     9  F    1.428991   2.466130   4.655466   7.901257   6.959240
    10  H    1.092436   2.187810   2.819555   6.744785   6.534180
                    6          7          8          9         10
     6  Sn   0.000000
     7  Sn   2.744653   0.000000
     8  Br   3.563125   4.646111   0.000000
     9  F    4.479362   6.431556   3.192512   0.000000
    10  H    3.284235   5.554688   3.968541   2.083429   0.000000
 Stoichiometry    C2H4BrFSn2
 Framework group  C1[X(C2H4BrFSn2)]
 Deg. of freedom    24
 Full point group                 C1      NOp   1
 Largest Abelian subgroup         C1      NOp   1
 Largest concise Abelian subgroup C1      NOp   1
                         Standard orientation:                         
 ---------------------------------------------------------------------
 Center     Atomic      Atomic             Coordinates (Angstroms)
 Number     Number       Type             X           Y           Z
 ---------------------------------------------------------------------
      1          6           0       -2.564734    1.257117    0.751047
      2          6           0       -1.664082    0.439662    0.130247
      3          1           0        0.301798    2.709577    0.285246
      4          1           0        3.857119    0.079972   -0.246826
      5          1           0        2.226202   -2.113496   -0.383449
      6         50           0        0.304955    1.126036   -0.441139
      7         50           0        2.342433   -0.540585    0.336148
      8         35           0       -2.171749   -1.432056   -0.307115
      9          9           0       -3.887597    0.855419    1.112552
     10          1           0       -2.382064    2.293887    1.042860
 ---------------------------------------------------------------------
 Rotational constants (GHZ):      1.0680624      0.3304253      0.2727577
 Standard basis: LANL2DZ (5D, 7F)
 There are    59 symmetry adapted basis functions of A   symmetry.
 Integral buffers will be    131072 words long.
 Raffenetti 1 integral format.
 Two-electron integral symmetry is turned on.
    59 basis functions,   127 primitive gaussians,    59 cartesian basis functions
    20 alpha electrons       20 beta electrons
       nuclear repulsion energy       131.3790965942 Hartrees.
 NAtoms=   10 NActive=   10 NUniq=   10 SFac= 7.50D-01 NAtFMM=   80 NAOKFM=F Big=F
 One-electron integrals computed using PRISM.
   1 Symmetry operations used in ECPInt.
 ECPInt:  NShTT=     630 NPrTT=    3262 LenC2=     623 LenP2D=    2672.
 LDataN:  DoStor=T MaxTD1= 4 Len=   56
 NBasis=    59 RedAO= T  NBF=    59
 NBsUse=    59 1.00D-06 NBFU=    59
 Initial guess read from the read-write file.
 B after Tr=     0.000000    0.000000    0.000000
         Rot=    1.000000    0.000000    0.000000    0.000000 Ang=   0.00 deg.
 Initial guess orbital symmetries:
       Occupied  (A) (A) (A) (A) (A) (A) (A) (A) (A) (A) (A) (A)
                 (A) (A) (A) (A) (A) (A) (A) (A)
       Virtual   (A) (A) (A) (A) (A) (A) (A) (A) (A) (A) (A) (A)
                 (A) (A) (A) (A) (A) (A) (A) (A) (A) (A) (A) (A)
                 (A) (A) (A) (A) (A) (A) (A) (A) (A) (A) (A) (A)
                 (A) (A) (A)
 Harris functional with IExCor=  205 diagonalized for initial guess.
 ExpMin= 6.30D-02 ExpMax= 1.00D+04 ExpMxC= 3.50D+02 IAcc=2 IRadAn=         0 AccDes= 0.00D+00
 HarFok:  IExCor=  205 AccDes= 0.00D+00 IRadAn=         0 IDoV= 1
 ScaDFX=  1.000000  1.000000  1.000000  1.000000
 Defaulting to unpruned grid for atomic number  50.
 Defaulting to unpruned grid for atomic number  50.
 Defaulting to unpruned grid for atomic number  50.
 Defaulting to unpruned grid for atomic number  50.
 Defaulting to unpruned grid for atomic number  50.
 Defaulting to unpruned grid for atomic number  50.
 Defaulting to unpruned grid for atomic number  50.
 Defaulting to unpruned grid for atomic number  50.
 Defaulting to unpruned grid for atomic number  50.
 Defaulting to unpruned grid for atomic number  50.
 Defaulting to unpruned grid for atomic number  50.
 Defaulting to unpruned grid for atomic number  50.
 Defaulting to unpruned grid for atomic number  50.
 Defaulting to unpruned grid for atomic number  50.
 Defaulting to unpruned grid for atomic number  50.
 Defaulting to unpruned grid for atomic number  50.
 Defaulting to unpruned grid for atomic number  50.
 Defaulting to unpruned grid for atomic number  50.
 Defaulting to unpruned grid for atomic number  50.
 Defaulting to unpruned grid for atomic number  50.
 FoFCou: FMM=F IPFlag=           0 FMFlag=      100000 FMFlg1=           0
         NFxFlg=           0 DoJE=T BraDBF=F KetDBF=T FulRan=T
         Omega=  0.000000  0.000000  1.000000  0.000000  0.000000 ICntrl=     500 IOpCl=  0
         NMat0=    1 NMatS0=    1 NMatT0=    0 NMatD0=    1 NMtDS0=    0 NMtDT0=    0
         I1Cent=           4 NGrid=           0.
 Petite list used in FoFCou.
 Requested convergence on RMS density matrix=1.00D-08 within 128 cycles.
 Requested convergence on MAX density matrix=1.00D-06.
 Requested convergence on             energy=1.00D-06.
 No special actions if energy rises.
 Keep R1 ints in memory in canonical form, NReq=2397586.
 SCF Done:  E(RHF) =  -196.784025551     A.U. after   12 cycles
             Convg  =    0.7568D-08             -V/T =  2.0727
 ExpMin= 6.30D-02 ExpMax= 1.00D+04 ExpMxC= 3.50D+02 IAcc=3 IRadAn=         5 AccDes= 0.00D+00
 HarFok:  IExCor=  205 AccDes= 0.00D+00 IRadAn=         5 IDoV=-2
 ScaDFX=  1.000000  1.000000  1.000000  1.000000
 Defaulting to unpruned grid for atomic number  50.
 Defaulting to unpruned grid for atomic number  50.
 Defaulting to unpruned grid for atomic number  50.
 Defaulting to unpruned grid for atomic number  50.
 Defaulting to unpruned grid for atomic number  50.
 Defaulting to unpruned grid for atomic number  50.
 Defaulting to unpruned grid for atomic number  50.
 Defaulting to unpruned grid for atomic number  50.
 Defaulting to unpruned grid for atomic number  50.
 Defaulting to unpruned grid for atomic number  50.
 Defaulting to unpruned grid for atomic number  50.
 Defaulting to unpruned grid for atomic number  50.
 Defaulting to unpruned grid for atomic number  50.
 Defaulting to unpruned grid for atomic number  50.
 Defaulting to unpruned grid for atomic number  50.
 Defaulting to unpruned grid for atomic number  50.
 Defaulting to unpruned grid for atomic number  50.
 Defaulting to unpruned grid for atomic number  50.
 Defaulting to unpruned grid for atomic number  50.
 Defaulting to unpruned grid for atomic number  50.
 Range of M.O.s used for correlation:     4    59
 NBasis=    59 NAE=    20 NBE=    20 NFC=     3 NFV=     0
 NROrb=     56 NOA=    17 NOB=    17 NVA=    39 NVB=    39
 Fully direct method using O(ONN) memory.
 JobTyp=1 Pass  1:  I=   4 to  20 NPSUse= 20 ParTrn=T ParDer=T DoDerP=T.
 Spin components of T(2) and E(2):
     alpha-alpha T2 =       0.2197186471D-01 E2=     -0.4691074071D-01
     alpha-beta  T2 =       0.1671006227D+00 E2=     -0.3206765713D+00
     beta-beta   T2 =       0.2197186471D-01 E2=     -0.4691074071D-01
 ANorm=    0.1100474603D+01
 E2 =    -0.4144980527D+00 EUMP2 =    -0.19719852360388D+03
          IDoAtm=1111111111
          Differentiating once with respect to electric field.
                with respect to dipole field.
          Differentiating once with respect to nuclear coordinates.
          Keep R1 ints in memory in canonical form, NReq=2368185.
          There are     1 degrees of freedom in the 1st order CPHF.  IDoFFX=0.
 LinEq1:  Iter=  0 NonCon=     1 RMS=9.73D-03 Max=8.56D-02
 AX will form     1 AO Fock derivatives at one time.
 LinEq1:  Iter=  1 NonCon=     1 RMS=3.98D-03 Max=3.24D-02
 LinEq1:  Iter=  2 NonCon=     1 RMS=1.32D-03 Max=1.51D-02
 LinEq1:  Iter=  3 NonCon=     1 RMS=4.24D-04 Max=4.05D-03
 LinEq1:  Iter=  4 NonCon=     1 RMS=1.53D-04 Max=1.22D-03
 LinEq1:  Iter=  5 NonCon=     1 RMS=4.73D-05 Max=3.12D-04
 LinEq1:  Iter=  6 NonCon=     1 RMS=1.46D-05 Max=1.15D-04
 LinEq1:  Iter=  7 NonCon=     1 RMS=4.12D-06 Max=2.86D-05
 LinEq1:  Iter=  8 NonCon=     1 RMS=8.13D-07 Max=5.72D-06
 LinEq1:  Iter=  9 NonCon=     1 RMS=1.50D-07 Max=1.23D-06
 LinEq1:  Iter= 10 NonCon=     1 RMS=3.89D-08 Max=5.24D-07
 LinEq1:  Iter= 11 NonCon=     1 RMS=9.75D-09 Max=8.04D-08
 LinEq1:  Iter= 12 NonCon=     1 RMS=2.24D-09 Max=1.37D-08
 LinEq1:  Iter= 13 NonCon=     1 RMS=3.61D-10 Max=2.52D-09
 LinEq1:  Iter= 14 NonCon=     0 RMS=5.78D-11 Max=4.59D-10
 Linear equations converged to 1.000D-10 1.000D-09 after    14 iterations.
 End of Minotr Frequency-dependent properties file   721 does not exist.
 End of Minotr Frequency-dependent properties file   722 does not exist.
   1 Symmetry operations used in ECPInt.
 ECPInt:  NShTT=     630 NPrTT=    3262 LenC2=     623 LenP2D=    2672.
 LDataN:  DoStor=T MaxTD1= 5 Len=  102
 Calling FoFJK, ICntrl=      2127 FMM=F ISym2X=0 I1Cent= 0 IOpClX= 0 NMat=1 NMatS=1 NMatT=0.
 ***** Axes restored to original set *****
 -------------------------------------------------------------------
 Center     Atomic                   Forces (Hartrees/Bohr)
 Number     Number              X              Y              Z
 -------------------------------------------------------------------
      1        6          -0.000634594   -0.000641954    0.000338173
      2        6           0.000694492    0.000828849   -0.000256807
      3        1           0.000248531    0.000070037   -0.000039300
      4        1           0.000040268    0.000035880    0.000039595
      5        1           0.000034846    0.000099220    0.000058634
      6       50          -0.000053656    0.000214028    0.000119390
      7       50          -0.000190480   -0.000469462   -0.000242171
      8       35          -0.000147405   -0.000032704   -0.000028023
      9        9          -0.000612713   -0.000052161   -0.000011670
     10        1           0.000620712   -0.000051734    0.000022177
 -------------------------------------------------------------------
 Cartesian Forces:  Max     0.000828849 RMS     0.000337649

 GradGradGradGradGradGradGradGradGradGradGradGradGradGradGradGradGradGrad
 Berny optimization.
 Using GEDIIS/GDIIS optimizer.
 Internal  Forces:  Max     0.000913719 RMS     0.000305427
 Search for a local minimum.
 Step number   4 out of a maximum of   43
 All quantities printed in internal units (Hartrees-Bohrs-Radians)
 Mixed Optimization -- En-DIIS/RFO-DIIS
 Swaping is turned off.
 Update second derivatives using D2CorX and points    1    2    3    4
 DE= -5.75D-05 DEPred=-6.47D-05 R= 8.89D-01
 SS=  1.41D+00  RLast= 8.69D-02 DXNew= 8.4853D-01 2.6067D-01
 Trust test= 8.89D-01 RLast= 8.69D-02 DXMaxT set to 5.05D-01
     Eigenvalues ---    0.00230   0.00310   0.01666   0.02861   0.03060
     Eigenvalues ---    0.03083   0.04938   0.06471   0.11198   0.12036
     Eigenvalues ---    0.12158   0.12322   0.12346   0.13000   0.15782
     Eigenvalues ---    0.16014   0.16193   0.21582   0.23608   0.24011
     Eigenvalues ---    0.26016   0.37180   0.42126   0.623611000.00000
     Eigenvalues --- 1000.000001000.000001000.000001000.000001000.00000
     Eigenvalues --- 1000.000001000.000001000.00000
 En-DIIS/RFO-DIIS IScMMF=        0 using points:     4    3
 RFO step:  Lambda=-6.36404399D-06.
 DIIS coeffs:      0.91240      0.08760
 Iteration  1 RMS(Cart)=  0.02131088 RMS(Int)=  0.00010759
 Iteration  2 RMS(Cart)=  0.00016841 RMS(Int)=  0.00000237
 Iteration  3 RMS(Cart)=  0.00000001 RMS(Int)=  0.00000237
 Variable       Old X    -DE/DX   Delta X   Delta X   Delta X     New X
                                  (DIIS)     (GDIIS)  (Total)
    R1        2.58057  -0.00091   0.00017  -0.00167  -0.00151   2.57906
    R2        2.70040  -0.00058  -0.00104   0.00133   0.00029   2.70069
    R3        2.06440  -0.00048   0.00013  -0.00146  -0.00133   2.06307
    R4        4.08579  -0.00007   0.00022  -0.00096  -0.00074   4.08505
    R5        3.75687  -0.00010   0.00049  -0.00148  -0.00100   3.75587
    R6        3.29227  -0.00007   0.00043  -0.00143  -0.00100   3.29127
    R7        3.28357  -0.00004   0.00038  -0.00112  -0.00074   3.28283
    R8        3.27604  -0.00003   0.00039  -0.00106  -0.00068   3.27536
    R9        5.18664   0.00038   0.00109   0.00262   0.00371   5.19035
    A1        2.16191   0.00010   0.00050  -0.00065  -0.00015   2.16176
    A2        2.18862   0.00037  -0.00101   0.00454   0.00353   2.19215
    A3        1.93264  -0.00046   0.00051  -0.00389  -0.00338   1.92926
    A4        2.13028  -0.00051   0.00051  -0.00311  -0.00259   2.12769
    A5        2.08884   0.00046  -0.00008   0.00197   0.00190   2.09073
    A6        2.06383   0.00005  -0.00043   0.00114   0.00071   2.06453
    A7        1.74844  -0.00049  -0.00084  -0.00173  -0.00257   1.74587
    A8        1.99155   0.00041  -0.00027   0.00190   0.00163   1.99318
    A9        2.02105   0.00020  -0.00088   0.00338   0.00251   2.02357
   A10        1.81647   0.00010  -0.00108   0.00226   0.00118   1.81765
   A11        1.91265  -0.00010   0.00016  -0.00136  -0.00120   1.91145
   A12        1.96450  -0.00033   0.00036  -0.00315  -0.00279   1.96172
    D1        3.11064   0.00004   0.00039   0.00059   0.00098   3.11162
    D2       -0.00711   0.00004   0.00018   0.00038   0.00056  -0.00655
    D3       -0.03567   0.00001   0.00042  -0.00048  -0.00006  -0.03573
    D4        3.12977   0.00000   0.00021  -0.00069  -0.00048   3.12929
    D5        0.11553   0.00001   0.00398   0.02026   0.02424   0.13978
    D6        2.28645   0.00014   0.00224   0.02421   0.02644   2.31289
    D7       -3.04958   0.00002   0.00419   0.02048   0.02467  -3.02491
    D8       -0.87867   0.00015   0.00245   0.02443   0.02687  -0.85179
    D9        3.09400   0.00001   0.00015  -0.00977  -0.00961   3.08439
   D10        1.08165   0.00014   0.00117  -0.00984  -0.00867   1.07298
   D11       -1.17243  -0.00019  -0.00178  -0.00818  -0.00996  -1.18239
   D12        3.09840  -0.00006  -0.00076  -0.00826  -0.00902   3.08938
         Item               Value     Threshold  Converged?
 Maximum Force            0.000914     0.000450     NO 
 RMS     Force            0.000305     0.000300     NO 
 Maximum Displacement     0.059967     0.001800     NO 
 RMS     Displacement     0.021309     0.001200     NO 
 Predicted change in Energy=-1.086310D-05
 GradGradGradGradGradGradGradGradGradGradGradGradGradGradGradGradGradGrad

                          Input orientation:                          
 ---------------------------------------------------------------------
 Center     Atomic      Atomic             Coordinates (Angstroms)
 Number     Number       Type             X           Y           Z
 ---------------------------------------------------------------------
      1          6           0        2.197761    2.914676   -0.215220
      2          6           0        1.962297    1.635689    0.198745
      3          1           0       -0.967189    2.229712   -0.089799
      4          1           0       -2.143510   -2.073455   -0.189300
      5          1           0        0.487818   -2.798685    0.019665
      6         50           0       -0.040207    0.893583    0.533795
      7         50           0       -0.540224   -1.553166   -0.609581
      8         35           0        3.490375    0.413588    0.547585
      9          9           0        3.503892    3.459100   -0.415408
     10          1           0        1.433123    3.659638   -0.443773
 ---------------------------------------------------------------------
                    Distance matrix (angstroms):
                    1          2          3          4          5
     1  C    0.000000
     2  C    1.364778   0.000000
     3  H    3.240650   3.003000   0.000000
     4  H    6.612772   5.546709   4.462161   0.000000
     5  H    5.968381   4.676519   5.235819   2.737428   0.000000
     6  Sn   3.107144   2.161713   1.741667   3.708107   3.765101
     7  Sn   5.254873   4.133376   3.842218   1.737200   1.733245
     8  Br   2.916876   1.987521   4.855352   6.202342   4.428628
     9  F    1.429143   2.465467   4.648438   7.909073   6.960306
    10  H    1.091731   2.188430   2.816288   6.762057   6.543570
                    6          7          8          9         10
     6  Sn   0.000000
     7  Sn   2.746617   0.000000
     8  Br   3.563088   4.631726   0.000000
     9  F    4.476997   6.443243   3.194163   0.000000
    10  H    3.282895   5.576281   3.968868   2.080650   0.000000
 Stoichiometry    C2H4BrFSn2
 Framework group  C1[X(C2H4BrFSn2)]
 Deg. of freedom    24
 Full point group                 C1      NOp   1
 Largest Abelian subgroup         C1      NOp   1
 Largest concise Abelian subgroup C1      NOp   1
                         Standard orientation:                         
 ---------------------------------------------------------------------
 Center     Atomic      Atomic             Coordinates (Angstroms)
[...]
 Rotational               0.889              2.981             32.481
 Vibrational             31.555             25.799             31.731
 Vibration     1          0.593              1.985              6.136
 Vibration     2          0.594              1.983              5.562
 Vibration     3          0.611              1.927              3.010
 Vibration     4          0.614              1.915              2.832
 Vibration     5          0.623              1.885              2.491
 Vibration     6          0.627              1.873              2.382
 Vibration     7          0.641              1.831              2.076
 Vibration     8          0.672              1.733              1.613
 Vibration     9          0.720              1.596              1.214
 Vibration    10          0.758              1.491              0.999
 Vibration    11          0.791              1.406              0.861
 Vibration    12          0.838              1.291              0.706
 Vibration    13          0.859              1.242              0.649
 Vibration    14          0.978              0.993              0.419
                       Q            Log10(Q)             Ln(Q)
 Total Bot       0.482744D-01         -1.316283         -3.030853
 Total V=0       0.311362D+19         18.493265         42.582317
 Vib (Bot)       0.637494D-16        -16.195524        -37.291572
 Vib (Bot)    1  0.805832D+01          0.906245          2.086705
 Vib (Bot)    2  0.602969D+01          0.780295          1.796695
 Vib (Bot)    3  0.162320D+01          0.210371          0.484398
 Vib (Bot)    4  0.147469D+01          0.168700          0.388445
 Vib (Bot)    5  0.122315D+01          0.087479          0.201427
 Vib (Bot)    6  0.115002D+01          0.060706          0.139781
 Vib (Bot)    7  0.964235D+00         -0.015817         -0.036420
 Vib (Bot)    8  0.723828D+00         -0.140364         -0.323201
 Vib (Bot)    9  0.546825D+00         -0.262151         -0.603626
 Vib (Bot)   10  0.459752D+00         -0.337476         -0.777068
 Vib (Bot)   11  0.406085D+00         -0.391383         -0.901193
 Vib (Bot)   12  0.346790D+00         -0.459933         -1.059036
 Vib (Bot)   13  0.325222D+00         -0.487821         -1.123249
 Vib (Bot)   14  0.236860D+00         -0.625508         -1.440286
 Vib (V=0)       0.411173D+04          3.614024          8.321598
 Vib (V=0)    1  0.857382D+01          0.933174          2.148713
 Vib (V=0)    2  0.655038D+01          0.816267          1.879523
 Vib (V=0)    3  0.219846D+01          0.342119          0.787758
 Vib (V=0)    4  0.205714D+01          0.313265          0.721319
 Vib (V=0)    5  0.182140D+01          0.260404          0.599603
 Vib (V=0)    6  0.175401D+01          0.244033          0.561907
 Vib (V=0)    7  0.158616D+01          0.200348          0.461318
 Vib (V=0)    8  0.137973D+01          0.139795          0.321889
 Vib (V=0)    9  0.124096D+01          0.093757          0.215883
 Vib (V=0)   10  0.117924D+01          0.071604          0.164873
 Vib (V=0)   11  0.114413D+01          0.058476          0.134645
 Vib (V=0)   12  0.110849D+01          0.044733          0.103001
 Vib (V=0)   13  0.109646D+01          0.039994          0.092090
 Vib (V=0)   14  0.105327D+01          0.022538          0.051895
 Electronic      0.100000D+01          0.000000          0.000000
 Translational   0.270440D+09          8.432071         19.415561
 Rotational      0.280008D+07          6.447170         14.845158
 ***** Axes restored to original set *****
 -------------------------------------------------------------------
 Center     Atomic                   Forces (Hartrees/Bohr)
 Number     Number              X              Y              Z
 -------------------------------------------------------------------
      1        6           0.000046912    0.000021458    0.000002762
      2        6          -0.000050284    0.000008568    0.000012864
      3        1          -0.000002346   -0.000010129    0.000005891
      4        1           0.000003357    0.000011630   -0.000007584
      5        1           0.000003554    0.000010754   -0.000005729
      6       50           0.000023104   -0.000000685   -0.000023624
      7       50          -0.000013501   -0.000018353    0.000019818
      8       35           0.000011245    0.000003697   -0.000004489
      9        9          -0.000023129   -0.000017309    0.000000789
     10        1           0.000001087   -0.000009631   -0.000000699
 -------------------------------------------------------------------
 Cartesian Forces:  Max     0.000050284 RMS     0.000017357

 GradGradGradGradGradGradGradGradGradGradGradGradGradGradGradGradGradGrad
 Berny optimization.
 Internal  Forces:  Max     0.000037198 RMS     0.000013619
 Search for a local minimum.
 Step number   1 out of a maximum of    2
 All quantities printed in internal units (Hartrees-Bohrs-Radians)
 Second derivative matrix not updated -- analytic derivatives used.
     Eigenvalues ---    0.00367   0.00661   0.01362   0.01650   0.02965
     Eigenvalues ---    0.03356   0.04142   0.04488   0.06750   0.06840
     Eigenvalues ---    0.07498   0.08833   0.10954   0.11626   0.12618
     Eigenvalues ---    0.12860   0.13054   0.13144   0.15523   0.19661
     Eigenvalues ---    0.20682   0.31299   0.36805   0.558481000.00000
     Eigenvalues --- 1000.000001000.000001000.000001000.000001000.00000
     Eigenvalues --- 1000.000001000.000001000.00000
 Angle between quadratic step and forces=  54.17 degrees.
 Linear search not attempted -- first point.
 Iteration  1 RMS(Cart)=  0.00085622 RMS(Int)=  0.00000026
 Iteration  2 RMS(Cart)=  0.00000048 RMS(Int)=  0.00000006
 Variable       Old X    -DE/DX   Delta X   Delta X   Delta X     New X
                                 (Linear)    (Quad)   (Total)
    R1        2.57881   0.00000   0.00000   0.00001   0.00001   2.57882
    R2        2.69939  -0.00003   0.00000  -0.00014  -0.00014   2.69925
    R3        2.06309  -0.00001   0.00000  -0.00002  -0.00002   2.06308
    R4        4.08585  -0.00001   0.00000  -0.00023  -0.00023   4.08562
    R5        3.75455   0.00001   0.00000   0.00014   0.00014   3.75469
    R6        3.29212  -0.00001   0.00000  -0.00010  -0.00010   3.29202
    R7        3.28380  -0.00001   0.00000  -0.00009  -0.00009   3.28371
    R8        3.27665  -0.00001   0.00000  -0.00010  -0.00010   3.27655
    R9        5.19290  -0.00001   0.00000  -0.00027  -0.00027   5.19262
    A1        2.16231  -0.00001   0.00000  -0.00002  -0.00002   2.16229
    A2        2.19166   0.00000   0.00000  -0.00006  -0.00006   2.19159
    A3        1.92920   0.00001   0.00000   0.00008   0.00008   1.92929
    A4        2.12401   0.00003   0.00000   0.00030   0.00030   2.12432
    A5        2.09213  -0.00004   0.00000  -0.00024  -0.00024   2.09189
    A6        2.06679   0.00000   0.00000  -0.00006  -0.00006   2.06673
    A7        1.74102   0.00000   0.00000   0.00022   0.00022   1.74124
    A8        1.99739   0.00003   0.00000   0.00076   0.00076   1.99815
    A9        2.03012  -0.00001   0.00000  -0.00005  -0.00005   2.03007
   A10        1.81597   0.00002   0.00000   0.00039   0.00039   1.81636
   A11        1.90825  -0.00001   0.00000  -0.00042  -0.00042   1.90784
   A12        1.95354  -0.00001   0.00000  -0.00008  -0.00008   1.95346
    D1        3.11048   0.00001   0.00000   0.00017   0.00017   3.11065
    D2       -0.00667   0.00000   0.00000   0.00001   0.00001  -0.00666
    D3       -0.03665   0.00000   0.00000   0.00003   0.00003  -0.03663
    D4        3.12938  -0.00001   0.00000  -0.00014  -0.00014   3.12924
    D5        0.13097   0.00000   0.00000   0.00014   0.00014   0.13111
    D6        2.31101   0.00000   0.00000   0.00064   0.00064   2.31164
    D7       -3.03472   0.00000   0.00000   0.00030   0.00030  -3.03442
    D8       -0.85468   0.00001   0.00000   0.00079   0.00079  -0.85389
    D9        3.08395   0.00000   0.00000   0.00017   0.00017   3.08413
   D10        1.08129  -0.00001   0.00000   0.00000   0.00000   1.08129
   D11       -1.18130   0.00002   0.00000   0.00102   0.00102  -1.18028
   D12        3.09923   0.00000   0.00000   0.00085   0.00085   3.10007
         Item               Value     Threshold  Converged?
 Maximum Force            0.000037     0.000450     YES
 RMS     Force            0.000014     0.000300     YES
 Maximum Displacement     0.001717     0.001800     YES
 RMS     Displacement     0.000856     0.001200     YES
 Predicted change in Energy=-4.736575D-08
 Optimization completed.
    -- Stationary point found.
                           ----------------------------
                           !   Optimized Parameters   !
                           ! (Angstroms and Degrees)  !
 --------------------------                            --------------------------
 ! Name  Definition              Value          Derivative Info.                !
 --------------------------------------------------------------------------------
 ! R1    R(1,2)                  1.3646         -DE/DX =    0.0                 !
 ! R2    R(1,9)                  1.4285         -DE/DX =    0.0                 !
 ! R3    R(1,10)                 1.0917         -DE/DX =    0.0                 !
 ! R4    R(2,6)                  2.1621         -DE/DX =    0.0                 !
 ! R5    R(2,8)                  1.9868         -DE/DX =    0.0                 !
 ! R6    R(3,6)                  1.7421         -DE/DX =    0.0                 !
 ! R7    R(4,7)                  1.7377         -DE/DX =    0.0                 !
 ! R8    R(5,7)                  1.7339         -DE/DX =    0.0                 !
 ! R9    R(6,7)                  2.748          -DE/DX =    0.0                 !
 ! A1    A(2,1,9)              123.8914         -DE/DX =    0.0                 !
 ! A2    A(2,1,10)             125.5727         -DE/DX =    0.0                 !
 ! A3    A(9,1,10)             110.5353         -DE/DX =    0.0                 !
 ! A4    A(1,2,6)              121.6971         -DE/DX =    0.0                 !
 ! A5    A(1,2,8)              119.8702         -DE/DX =    0.0                 !
 ! A6    A(6,2,8)              118.4184         -DE/DX =    0.0                 !
 ! A7    A(2,6,3)               99.7528         -DE/DX =    0.0                 !
 ! A8    A(2,6,7)              114.4419         -DE/DX =    0.0                 !
 ! A9    A(3,6,7)              116.3172         -DE/DX =    0.0                 !
 ! A10   A(4,7,5)              104.0477         -DE/DX =    0.0                 !
 ! A11   A(4,7,6)              109.3348         -DE/DX =    0.0                 !
 ! A12   A(5,7,6)              111.9298         -DE/DX =    0.0                 !
 ! D1    D(9,1,2,6)            178.2173         -DE/DX =    0.0                 !
 ! D2    D(9,1,2,8)             -0.3822         -DE/DX =    0.0                 !
 ! D3    D(10,1,2,6)            -2.1002         -DE/DX =    0.0                 !
 ! D4    D(10,1,2,8)           179.3003         -DE/DX =    0.0                 !
 ! D5    D(1,2,6,3)              7.5041         -DE/DX =    0.0                 !
 ! D6    D(1,2,6,7)            132.411          -DE/DX =    0.0                 !
 ! D7    D(8,2,6,3)           -173.8767         -DE/DX =    0.0                 !
 ! D8    D(8,2,6,7)            -48.9698         -DE/DX =    0.0                 !
 ! D9    D(2,6,7,4)            176.6975         -DE/DX =    0.0                 !
 ! D10   D(2,6,7,5)             61.9535         -DE/DX =    0.0                 !
 ! D11   D(3,6,7,4)            -67.6833         -DE/DX =    0.0                 !
 ! D12   D(3,6,7,5)            177.5727         -DE/DX =    0.0                 !
 --------------------------------------------------------------------------------
 GradGradGradGradGradGradGradGradGradGradGradGradGradGradGradGradGradGrad

 1\1\GINC-MALLOS66\Freq\RMP2-FC\LANL2DZ\C2H4Br1F1Sn2\MARLIN\24-Oct-2024
 \0\\#N Geom=AllCheck Guess=TCheck SCRF=Check GenChk RMP2(FC)/LANL2DZ F
 req\\Title Card Required\\0,1\C,2.1956933673,2.9140296989,-0.215584457
 6\C,1.9665216648,1.6337281871,0.1974098052\H,-0.9569452521,2.233816168
 2,-0.0840064449\H,-2.1474643441,-2.070578677,-0.1920041799\H,0.4809784
 68,-2.7996131486,0.0286106842\Sn,-0.0357595243,0.8881467059,0.52881683
 28\Sn,-0.5424558559,-1.5576588407,-0.6168657391\Br,3.4983313457,0.4181
 329176,0.5486204885\F,3.4982281832,3.4660480412,-0.4134985257\H,1.4270
 094874,3.6546292675,-0.4447905733\\Version=EM64L-G09RevA.01\State=1-A\
 HF=-196.7842093\MP2=-197.1985404\RMSD=7.211e-10\RMSF=1.736e-05\ZeroPoi
 nt=0.0430673\Thermal=0.053119\Dipole=-1.2616292,-0.1961153,-0.070661\D
 ipoleDeriv=0.5910823,0.7209467,-0.1976896,0.5083798,0.8511825,-0.12748
 78,-0.1337412,-0.2371659,0.1118023,-0.0946811,-0.3408288,0.1310907,-0.
 6572473,-0.5628393,-0.0621548,0.3295384,0.2913119,-0.217954,-0.338812,
 -0.0182888,-0.0014813,0.0765339,-0.3881554,0.0366189,-0.0002601,0.2707
 865,-0.0378626,-0.3578975,-0.1159358,-0.0245102,-0.1351664,-0.2964925,
 0.0369436,0.1451221,0.2680797,-0.0331545,-0.219832,0.0096112,0.0134819
 ,0.0425301,-0.3747471,0.0456433,0.0337747,0.3110258,-0.0260218,1.05038
 38,0.3868706,0.049041,0.3323814,0.870254,-0.0461395,-0.2425251,-0.5501
 075,0.153561,0.5775156,0.0852654,-0.004128,0.0600153,0.6747707,-0.0829
 203,-0.184549,-0.581406,0.0921687,-0.304429,0.1110184,-0.0884336,0.085
 6123,-0.0853154,0.0496721,-0.0294017,0.0261187,0.0045129,-0.8982875,-0
 .8250459,0.1114907,-0.3979825,-0.7315305,0.0716072,0.0993635,0.1355693
 ,-0.2268934,-0.0050427,-0.013613,0.0111385,0.0849434,0.0428731,0.07821
 73,-0.0173216,0.0657877,0.1798414\Polar=119.0398139,19.1681171,165.485
 1164,15.3972805,31.99801,74.5624638\PG=C01 [X(C2H4Br1F1Sn2)]\NImag=0\\
 0.49901768,-0.05529696,0.73318730,0.01119675,-0.20406903,0.16494643,-0
 .07636609,-0.04190872,0.01375541,0.28009197,-0.06216573,-0.44124809,0.
 12941419,0.06234963,0.55486565,0.02125038,0.12859665,-0.08304798,-0.02
 723380,-0.16037238,0.10757069,0.00071849,0.00084212,-0.00049674,-0.003
 61914,0.00734955,-0.00366692,0.04588577,0.00066690,-0.00104126,0.00014
 899,-0.00109352,0.00213639,0.00000881,-0.04663320,0.08005978,-0.000237
 91,0.00008891,-0.00033656,0.00136330,-0.00024231,0.00057981,0.02137806
 ,-0.03153806,0.02024401,0.00020387,0.00034117,-0.00016345,0.00014179,-
 0.00028398,-0.00025107,0.00009306,-0.00028886,-0.00023615,0.11256437,-
 0.00017090,0.00037050,-0.00051089,0.00048843,-0.00183132,-0.00214062,0
 .00027982,-0.00020719,-0.00096562,0.03136429,0.02200273,-0.00094324,-0
 .00054290,0.00017026,0.00015800,-0.00125216,0.00017328,0.00008369,-0.0
 0095807,-0.00119237,-0.02510681,-0.00964446,0.01240985,0.00030271,-0.0
 0012233,-0.00000417,-0.00009606,0.00052671,-0.00022773,0.00010032,-0.0
 0032841,-0.00083965,-0.00542548,0.00725710,-0.00415632,0.05477579,0.00
 021665,0.00025061,-0.00025249,0.00005698,-0.00052481,-0.00093991,-0.00
 036261,-0.00103972,-0.00210997,-0.00231139,0.00279913,-0.00013833,-0.0
 5025880,0.07187129,-0.00014944,-0.00098945,0.00009585,0.00001509,0.000
 32927,-0.00173158,-0.00080576,-0.00209879,0.00013057,0.00267519,-0.001
 22831,0.00078072,0.02576905,-0.03224516,0.02150816,-0.00830263,-0.0037
 0171,0.00232928,-0.10052138,-0.03608035,0.01934415,-0.04029187,0.04542
 980,-0.02360705,-0.00069124,-0.00388071,-0.00299100,0.00050340,0.00349
 602,0.00054306,0.16073557,-0.01542291,-0.00318248,0.00186254,-0.032327
 29,-0.03198631,0.00960886,0.03876219,-0.08379626,0.03801759,0.00167968
 ,0.00266990,-0.00138773,-0.00079865,0.00091917,-0.00304543,0.00553543,
 0.18938659,0.00420227,0.00077327,-0.00164157,0.01279994,0.00397338,-0.
 01619796,-0.01787876,0.02731904,-0.02180327,0.00239217,0.00678902,0.00
 095286,0.00142040,0.00776941,0.00200010,0.00929115,-0.02354396,0.05150
 607,-0.00143126,0.00062767,-0.00070731,0.00029250,-0.00494124,-0.00200
 083,0.00076939,0.00315920,0.00147937,-0.10658743,-0.03483188,0.0323643
 3,-0.05013685,0.04984325,-0.02879722,-0.01012477,-0.01071983,-0.006328
 55,0.16735036,0.00092624,-0.00014172,-0.00013765,-0.00015105,0.0020111
 5,-0.00055399,-0.00031763,0.00195063,-0.00260806,-0.03027594,-0.025663
 16,0.01422545,0.04380843,-0.07433222,0.03905248,-0.01189661,-0.0671091
 0,-0.02579696,-0.00284928,0.16244873,0.00165741,0.00205092,-0.00010840
 ,0.00053425,0.00319258,0.00280698,0.00106693,0.00769338,0.00194150,0.0
 2060408,0.00714100,-0.01343632,-0.02200253,0.02771850,-0.02290272,-0.0
 0394469,-0.02449666,-0.01921177,0.00324064,-0.02379174,0.05167583,-0.0
 1523181,0.00088492,0.00022981,-0.08097103,0.05698423,-0.01592962,-0.00
 320784,-0.00092809,0.00053828,-0.00000501,-0.00003437,0.00026070,-0.00
 001349,-0.00029102,0.00016417,-0.00752343,0.01302403,-0.00425250,0.000
 17173,-0.00005970,-0.00060304,0.10072261,0.03281390,-0.01768374,0.0067
 8033,0.03745909,-0.05933571,0.01247108,0.00000246,0.00068473,-0.000185
 05,-0.00009058,0.00009727,-0.00004743,-0.00012068,0.00009551,-0.000127
 38,-0.00168985,-0.00261287,0.00143873,0.00021834,-0.00008333,0.0001937
 8,-0.06683163,0.07875844,-0.00990768,0.00724452,0.00356917,-0.01042693
 ,0.01231871,-0.02032375,0.00006158,-0.00005900,0.00060527,0.00000855,0
 .00008495,0.00004234,0.00002563,0.00003487,-0.00002783,0.00083803,0.00
 079324,0.00075531,0.00011236,-0.00002914,-0.00009807,0.01885050,-0.020
 83122,0.01455883,-0.21109758,-0.05279956,0.02045861,-0.02536537,-0.011
 85925,0.00520713,-0.00057228,-0.00003580,0.00023669,-0.00027393,-0.000
 48739,0.00032359,-0.00000316,-0.00040578,0.00060942,0.00632919,0.00128
 375,-0.00218039,-0.00035423,0.00088133,-0.00057196,0.00467246,0.001014
 27,-0.00047710,0.25794222,-0.05374303,-0.07601020,0.01543152,-0.042738
 24,-0.01488214,0.01023051,-0.00034262,0.00059973,-0.00004049,-0.000150
 80,-0.00024447,-0.00009920,0.00005796,-0.00011376,0.00045659,0.0032454
 2,-0.00193455,0.00038487,-0.00045513,0.00097501,0.00000174,-0.00194658
 ,0.00071774,-0.00168203,0.08538420,0.08461741,0.02027705,0.01508477,-0
 .03750748,0.01508033,0.00939893,0.00942759,0.00028322,-0.00015330,0.00
 006107,0.00012261,0.00064405,0.00012626,0.00002012,0.00031804,0.000198
 63,-0.00221136,0.00086675,0.00439407,0.00070441,-0.00028430,-0.0008353
 9,0.00025443,-0.00172902,-0.00428907,-0.03166285,-0.02378940,0.0239815
 7,-0.18781338,0.15113340,-0.04659819,0.00641283,-0.01187958,0.00350831
 ,0.00012410,0.00005199,-0.00007496,-0.00001998,0.00001561,0.00000706,-
 0.00000716,0.00001669,-0.00002356,-0.00011285,-0.00101641,0.00053427,0
 .00005057,-0.00006579,0.00001891,0.00138582,-0.00277533,0.00091506,-0.
 03127731,0.01068882,-0.00286795,0.21125735,0.15217583,-0.19450093,0.05
 133248,0.01786469,-0.00920480,0.00309100,0.00041992,0.00065318,-0.0004
 1693,0.00001643,0.00000662,-0.00015519,-0.00002134,0.00007480,-0.00010
 381,-0.00045746,-0.00235408,0.00089320,-0.00005111,-0.00005598,0.00029
 648,-0.00080180,-0.00063803,0.00212510,-0.02297577,0.00627523,-0.00035
 651,-0.14616940,0.19974399,-0.04734560,0.05176234,-0.04613970,-0.00604
 559,0.00323980,0.00074291,-0.00002530,-0.00036302,-0.00023003,-0.00004
 513,-0.00016912,-0.00002689,-0.00000481,-0.00015496,-0.00005190,0.0004
 0843,0.00132479,-0.00075384,-0.00006720,-0.00007608,0.00016836,0.00048
 728,0.00203617,0.00520780,0.00805687,-0.00089411,0.00444277,0.04458105
 ,-0.05670582,0.03664053\\-0.00004691,-0.00002146,-0.00000276,0.0000502
 8,-0.00000857,-0.00001286,0.00000235,0.00001013,-0.00000589,-0.0000033
 6,-0.00001163,0.00000758,-0.00000355,-0.00001075,0.00000573,-0.0000231
 0,0.00000068,0.00002362,0.00001350,0.00001835,-0.00001982,-0.00001125,
 -0.00000370,0.00000449,0.00002313,0.00001731,-0.00000079,-0.00000109,0
 .00000963,0.00000070\\\@


     "IF I COULD JUST GET IT ON PAPER"
 LIFE AND INK, THEY RUN OUT AT THE SAME TIME,
 OR SO SAID MY OLD FRIEND THE SQUID.
     -- JIMMY BUFFETT, 1981
 Job cpu time:  0 days  0 hours  3 minutes 40.4 seconds.
 File lengths (MBytes):  RWF=    145 Int=      0 D2E=      0 Chk=      1 Scr=      1
 Normal termination of Gaussian 09 at Thu Oct 24 12:20:41 2024.
