 Entering Gaussian System, Link 0=g09
 Initial command:
 /u/local/G09/g09/l1.exe /tmp1/marlin/22847.mallos00.local/Gau-2394.inp -scrdir=/tmp1/marlin/22847.mallos00.local/
 Entering Link 1 = /u/local/G09/g09/l1.exe PID=      2396.
  
 Copyright (c) 1988,1990,1992,1993,1995,1998,2003,2009, Gaussian, Inc.
                  All Rights Reserved.
  
 This is part of the Gaussian(R) 09 program.  It is based on
 the Gaussian(R) 03 system (copyright 2003, Gaussian, Inc.),
 the Gaussian(R) 98 system (copyright 1998, Gaussian, Inc.),
 the Gaussian(R) 94 system (copyright 1995, Gaussian, Inc.),
 the Gaussian 92(TM) system (copyright 1992, Gaussian, Inc.),
 the Gaussian 90(TM) system (copyright 1990, Gaussian, Inc.),
 the Gaussian 88(TM) system (copyright 1988, Gaussian, Inc.),
 the Gaussian 86(TM) system (copyright 1986, Carnegie Mellon
 University), and the Gaussian 82(TM) system (copyright 1983,
 Carnegie Mellon University). Gaussian is a federally registered
 trademark of Gaussian, Inc.
  
 This software contains proprietary and confidential information,
 including trade secrets, belonging to Gaussian, Inc.
  
 This software is provided under written license and may be
 used, copied, transmitted, or stored only in accord with that
 written license.
  
 The following legend is applicable only to US Government
 contracts under FAR:
  
                    RESTRICTED RIGHTS LEGEND
  
 Use, reproduction and disclosure by the US Government is
 subject to restrictions as set forth in subparagraphs (a)
 and (c) of the Commercial Computer Software - Restricted
 Rights clause in FAR 52.227-19.
  
 Gaussian, Inc.
 340 Quinnipiac St., Bldg. 40, Wallingford CT 06492
  
  
 ---------------------------------------------------------------
 Warning -- This program may not be used in any manner that
 competes with the business of Gaussian, Inc. or will provide
 assistance to any competitor of Gaussian, Inc.  The licensee
 of this program is prohibited from giving any competitor of
 Gaussian, Inc. access to this program.  By using this program,
 the user acknowledges that Gaussian, Inc. is engaged in the
 business of creating and licensing software in the field of
 computational chemistry and represents and warrants to the
 licensee that it is not a competitor of Gaussian, Inc. and that
 it will not use this program in any manner prohibited above.
 ---------------------------------------------------------------
  

 Cite this work as:
 Gaussian 09, Revision A.01,
 M. J. Frisch, G. W. Trucks, H. B. Schlegel, G. E. Scuseria, 
 M. A. Robb, J. R. Cheeseman, G. Scalmani, V. Barone, B. Mennucci, 
 G. A. Petersson, H. Nakatsuji, M. Caricato, X. Li, H. P. Hratchian, 
 A. F. Izmaylov, J. Bloino, G. Zheng, J. L. Sonnenberg, M. Hada, 
 M. Ehara, K. Toyota, R. Fukuda, J. Hasegawa, M. Ishida, T. Nakajima, 
 Y. Honda, O. Kitao, H. Nakai, T. Vreven, J. A. Montgomery, Jr., 
 J. E. Peralta, F. Ogliaro, M. Bearpark, J. J. Heyd, E. Brothers, 
 K. N. Kudin, V. N. Staroverov, R. Kobayashi, J. Normand, 
 K. Raghavachari, A. Rendell, J. C. Burant, S. S. Iyengar, J. Tomasi, 
 M. Cossi, N. Rega, J. M. Millam, M. Klene, J. E. Knox, J. B. Cross, 
 V. Bakken, C. Adamo, J. Jaramillo, R. Gomperts, R. E. Stratmann, 
 O. Yazyev, A. J. Austin, R. Cammi, C. Pomelli, J. W. Ochterski, 
 R. L. Martin, K. Morokuma, V. G. Zakrzewski, G. A. Voth, 
 P. Salvador, J. J. Dannenberg, S. Dapprich, A. D. Daniels, 
 O. Farkas, J. B. Foresman, J. V. Ortiz, J. Cioslowski, 
 and D. J. Fox, Gaussian, Inc., Wallingford CT, 2009.
 
 ******************************************
 Gaussian 09:  EM64L-G09RevA.01  8-May-2009
                25-Oct-2024 
 ******************************************
 %mem=412GB
 %nproc=24
 Will use up to   24 processors via shared memory.
 %chk=6-sddmp2.chk
 ----------------------------------------
 # opt freq=noraman mp2/sdd geom=allcheck
 ----------------------------------------
 1/18=20,19=15,29=7,38=1/1,3;
 2/9=110,12=2,40=1/2;
 3/5=17,6=7,11=9,14=-4,16=1,25=1,30=1,71=1/1,2,3;
 4//1;
 5/5=2,38=5/2;
 8/6=4,10=1/1;
 9/15=2,16=-3/6;
 10/5=1/2;
 6/7=2,8=2,9=2,10=2/1;
 7/12=2/1,2,3,16;
 1/18=20,19=15/3(2);
 2/9=110/2;
 99//99;
 2/9=110/2;
 3/5=17,6=7,11=9,14=-2,16=1,25=1,30=1,71=1/1,2,3;
 4/5=5,16=3/1;
 5/5=2,38=5/2;
 8/6=4,10=1/1;
 9/15=2,16=-3/6;
 10/5=1/2;
 7/12=2/1,2,3,16;
 1/18=20,19=15/3(-8);
 2/9=110/2;
 6/7=2,8=2,9=2,10=2/1;
 99//99;
 -------------------
 Title Card Required
 -------------------
 Redundant internal coordinates taken from checkpoint file:
 6-sddmp2.chk
 Charge =  0 Multiplicity = 1
 C,0,2.204994092,2.8930848953,-0.251722099
 C,0,1.9703458643,1.6797104948,0.2312387552
 H,0,-0.9161142066,2.268849661,-0.0041553735
 H,0,-2.1294409309,-2.1189018385,-0.2323518097
 H,0,0.4410827151,-2.8419009595,-0.0686259328
 Sn,0,-0.0314534247,0.9214120982,0.6366908695
 Sn,0,-0.547120881,-1.5431146548,-0.6306955765
 Br,0,3.4855348287,0.515592935,0.6547462577
 F,0,3.4591324076,3.4064744554,-0.4764359401
 H,0,1.4471770755,3.5994732331,-0.5219812609
 Recover connectivity data from disk.

 GradGradGradGradGradGradGradGradGradGradGradGradGradGradGradGradGradGrad
 Berny optimization.
 Initialization pass.
                           ----------------------------
                           !    Initial Parameters    !
                           ! (Angstroms and Degrees)  !
 --------------------------                            --------------------------
 ! Name  Definition              Value          Derivative Info.                !
 --------------------------------------------------------------------------------
 ! R1    R(1,2)                  1.3269         estimate D2E/DX2                !
 ! R2    R(1,9)                  1.3737         estimate D2E/DX2                !
 ! R3    R(1,10)                 1.0707         estimate D2E/DX2                !
 ! R4    R(2,6)                  2.1787         estimate D2E/DX2                !
 ! R5    R(2,8)                  1.9571         estimate D2E/DX2                !
 ! R6    R(3,6)                  1.7346         estimate D2E/DX2                !
 ! R7    R(4,7)                  1.7303         estimate D2E/DX2                !
 ! R8    R(5,7)                  1.7261         estimate D2E/DX2                !
 ! R9    R(6,7)                  2.8189         estimate D2E/DX2                !
 ! A1    A(2,1,9)              124.2477         estimate D2E/DX2                !
 ! A2    A(2,1,10)             124.7532         estimate D2E/DX2                !
 ! A3    A(9,1,10)             110.9986         estimate D2E/DX2                !
 ! A4    A(1,2,6)              123.2647         estimate D2E/DX2                !
 ! A5    A(1,2,8)              119.0639         estimate D2E/DX2                !
 ! A6    A(6,2,8)              117.6483         estimate D2E/DX2                !
 ! A7    A(2,6,3)               97.4395         estimate D2E/DX2                !
 ! A8    A(2,6,7)              112.8744         estimate D2E/DX2                !
 ! A9    A(3,6,7)              114.8183         estimate D2E/DX2                !
 ! A10   A(4,7,5)              101.4314         estimate D2E/DX2                !
 ! A11   A(4,7,6)              110.7761         estimate D2E/DX2                !
 ! A12   A(5,7,6)              113.9992         estimate D2E/DX2                !
 ! D1    D(9,1,2,6)            177.9254         estimate D2E/DX2                !
 ! D2    D(9,1,2,8)             -0.2851         estimate D2E/DX2                !
 ! D3    D(10,1,2,6)            -2.3696         estimate D2E/DX2                !
 ! D4    D(10,1,2,8)           179.4199         estimate D2E/DX2                !
 ! D5    D(1,2,6,3)              5.2342         estimate D2E/DX2                !
 ! D6    D(1,2,6,7)            126.2            estimate D2E/DX2                !
 ! D7    D(8,2,6,3)           -176.5315         estimate D2E/DX2                !
 ! D8    D(8,2,6,7)            -55.5657         estimate D2E/DX2                !
 ! D9    D(2,6,7,4)            178.192          estimate D2E/DX2                !
 ! D10   D(2,6,7,5)             64.5546         estimate D2E/DX2                !
 ! D11   D(3,6,7,4)            -71.3247         estimate D2E/DX2                !
 ! D12   D(3,6,7,5)            175.0379         estimate D2E/DX2                !
 --------------------------------------------------------------------------------
 Trust Radius=3.00D-01 FncErr=1.00D-07 GrdErr=1.00D-07
 Number of steps in this run=  43 maximum allowed number of steps= 100.
 GradGradGradGradGradGradGradGradGradGradGradGradGradGradGradGradGradGrad

                          Input orientation:                          
 ---------------------------------------------------------------------
 Center     Atomic      Atomic             Coordinates (Angstroms)
 Number     Number       Type             X           Y           Z
 ---------------------------------------------------------------------
      1          6           0        2.204994    2.893085   -0.251722
      2          6           0        1.970346    1.679710    0.231239
      3          1           0       -0.916114    2.268850   -0.004155
      4          1           0       -2.129441   -2.118902   -0.232352
      5          1           0        0.441083   -2.841901   -0.068626
      6         50           0       -0.031453    0.921412    0.636691
      7         50           0       -0.547121   -1.543115   -0.630696
      8         35           0        3.485535    0.515593    0.654746
      9          9           0        3.459132    3.406474   -0.476436
     10          1           0        1.447177    3.599473   -0.521981
 ---------------------------------------------------------------------
                    Distance matrix (angstroms):
                    1          2          3          4          5
     1  C    0.000000
     2  C    1.326872   0.000000
     3  H    3.192534   2.955359   0.000000
     4  H    6.626290   5.608264   4.558135   0.000000
     5  H    6.002913   4.782628   5.288281   2.675280   0.000000
     6  Sn   3.111024   2.178671   1.734617   3.794772   3.857886
     7  Sn   5.234274   4.179375   3.880693   1.730302   1.726069
     8  Br   2.848497   1.957122   4.783573   6.265418   4.589632
     9  F    1.373655   2.387258   4.545330   7.862666   6.951052
    10  H    1.070659   2.127565   2.761132   6.750992   6.535217
                    6          7          8          9         10
     6  Sn   0.000000
     7  Sn   2.818878   0.000000
     8  Br   3.540370   4.706692   0.000000
     9  F    4.427050   6.369638   3.104427   0.000000
    10  H    3.271220   5.516816   3.879421   2.021704   0.000000
 Stoichiometry    C2H4BrFSn2
 Framework group  C1[X(C2H4BrFSn2)]
 Deg. of freedom    24
 Full point group                 C1      NOp   1
 Largest Abelian subgroup         C1      NOp   1
 Largest concise Abelian subgroup C1      NOp   1
                         Standard orientation:                         
 ---------------------------------------------------------------------
 Center     Atomic      Atomic             Coordinates (Angstroms)
 Number     Number       Type             X           Y           Z
 ---------------------------------------------------------------------
      1          6           0       -2.540306    1.168229    0.861295
      2          6           0       -1.683383    0.425563    0.172296
      3          1           0        0.223424    2.677552    0.335927
      4          1           0        3.896943    0.039527   -0.232125
      5          1           0        2.327711   -2.123084   -0.365341
      6         50           0        0.272972    1.140517   -0.466547
      7         50           0        2.376600   -0.550995    0.345616
      8         35           0       -2.202605   -1.387747   -0.349854
      9          9           0       -3.793891    0.752541    1.238994
     10          1           0       -2.348380    2.165447    1.200459
 ---------------------------------------------------------------------
 Rotational constants (GHZ):      1.0618958      0.3245823      0.2723764
 Standard basis: SDD (6D, 10F)
 There are    65 symmetry adapted basis functions of A   symmetry.
 Integral buffers will be    131072 words long.
 Raffenetti 1 integral format.
 Two-electron integral symmetry is turned on.
    65 basis functions,   139 primitive gaussians,    65 cartesian basis functions
    20 alpha electrons       20 beta electrons
       nuclear repulsion energy       133.7395781471 Hartrees.
 NAtoms=   10 NActive=   10 NUniq=   10 SFac= 7.50D-01 NAtFMM=   80 NAOKFM=F Big=F
 One-electron integrals computed using PRISM.
   1 Symmetry operations used in ECPInt.
 ECPInt:  NShTT=     780 NPrTT=    3579 LenC2=     767 LenP2D=    2848.
 LDataN:  DoStor=T MaxTD1= 5 Len=  102
 NBasis=    65 RedAO= T  NBF=    65
 NBsUse=    65 1.00D-06 NBFU=    65
 Harris functional with IExCor=  205 diagonalized for initial guess.
 ExpMin= 3.61D-02 ExpMax= 9.99D+03 ExpMxC= 1.51D+03 IAcc=3 IRadAn=         0 AccDes= 0.00D+00
 HarFok:  IExCor=  205 AccDes= 0.00D+00 IRadAn=         0 IDoV= 1
 ScaDFX=  1.000000  1.000000  1.000000  1.000000
 Defaulting to unpruned grid for atomic number  50.
 Defaulting to unpruned grid for atomic number  50.
 Defaulting to unpruned grid for atomic number  50.
 Defaulting to unpruned grid for atomic number  50.
 Defaulting to unpruned grid for atomic number  50.
 Defaulting to unpruned grid for atomic number  50.
 Defaulting to unpruned grid for atomic number  50.
 Defaulting to unpruned grid for atomic number  50.
 Defaulting to unpruned grid for atomic number  50.
 Defaulting to unpruned grid for atomic number  50.
 Defaulting to unpruned grid for atomic number  50.
 Defaulting to unpruned grid for atomic number  50.
 Defaulting to unpruned grid for atomic number  50.
 Defaulting to unpruned grid for atomic number  50.
 Defaulting to unpruned grid for atomic number  50.
 Defaulting to unpruned grid for atomic number  50.
 Defaulting to unpruned grid for atomic number  50.
 Defaulting to unpruned grid for atomic number  50.
 Defaulting to unpruned grid for atomic number  50.
 Defaulting to unpruned grid for atomic number  50.
 Defaulting to unpruned grid for atomic number  50.
 Defaulting to unpruned grid for atomic number  50.
 Defaulting to unpruned grid for atomic number  50.
 Defaulting to unpruned grid for atomic number  50.
 FoFCou: FMM=F IPFlag=           0 FMFlag=      100000 FMFlg1=           0
         NFxFlg=           0 DoJE=T BraDBF=F KetDBF=T FulRan=T
         Omega=  0.000000  0.000000  1.000000  0.000000  0.000000 ICntrl=     500 IOpCl=  0
         NMat0=    1 NMatS0=    1 NMatT0=    0 NMatD0=    1 NMtDS0=    0 NMtDT0=    0
         I1Cent=           4 NGrid=           0.
 Petite list used in FoFCou.
 Initial guess orbital symmetries:
       Occupied  (A) (A) (A) (A) (A) (A) (A) (A) (A) (A) (A) (A)
                 (A) (A) (A) (A) (A) (A) (A) (A)
       Virtual   (A) (A) (A) (A) (A) (A) (A) (A) (A) (A) (A) (A)
                 (A) (A) (A) (A) (A) (A) (A) (A) (A) (A) (A) (A)
                 (A) (A) (A) (A) (A) (A) (A) (A) (A) (A) (A) (A)
                 (A) (A) (A) (A) (A) (A) (A) (A) (A)
 The electronic state of the initial guess is 1-A.
 Requested convergence on RMS density matrix=1.00D-08 within 128 cycles.
 Requested convergence on MAX density matrix=1.00D-06.
 Requested convergence on             energy=1.00D-06.
 No special actions if energy rises.
 Keep R1 ints in memory in canonical form, NReq=3134494.
 SCF Done:  E(RHF) =  -197.004740872     A.U. after   15 cycles
             Convg  =    0.2863D-08             -V/T =  2.0701
 ExpMin= 3.61D-02 ExpMax= 9.99D+03 ExpMxC= 1.51D+03 IAcc=3 IRadAn=         5 AccDes= 0.00D+00
 HarFok:  IExCor=  205 AccDes= 0.00D+00 IRadAn=         5 IDoV=-2
 ScaDFX=  1.000000  1.000000  1.000000  1.000000
 Defaulting to unpruned grid for atomic number  50.
 Defaulting to unpruned grid for atomic number  50.
 Defaulting to unpruned grid for atomic number  50.
 Defaulting to unpruned grid for atomic number  50.
 Defaulting to unpruned grid for atomic number  50.
 Defaulting to unpruned grid for atomic number  50.
 Defaulting to unpruned grid for atomic number  50.
 Defaulting to unpruned grid for atomic number  50.
 Defaulting to unpruned grid for atomic number  50.
 Defaulting to unpruned grid for atomic number  50.
 Defaulting to unpruned grid for atomic number  50.
 Defaulting to unpruned grid for atomic number  50.
 Defaulting to unpruned grid for atomic number  50.
 Defaulting to unpruned grid for atomic number  50.
 Defaulting to unpruned grid for atomic number  50.
 Defaulting to unpruned grid for atomic number  50.
 Defaulting to unpruned grid for atomic number  50.
 Defaulting to unpruned grid for atomic number  50.
 Defaulting to unpruned grid for atomic number  50.
 Defaulting to unpruned grid for atomic number  50.
 Defaulting to unpruned grid for atomic number  50.
 Defaulting to unpruned grid for atomic number  50.
 Defaulting to unpruned grid for atomic number  50.
 Defaulting to unpruned grid for atomic number  50.
 Range of M.O.s used for correlation:     4    65
 NBasis=    65 NAE=    20 NBE=    20 NFC=     3 NFV=     0
 NROrb=     62 NOA=    17 NOB=    17 NVA=    45 NVB=    45
 Fully direct method using O(ONN) memory.
 JobTyp=1 Pass  1:  I=   4 to  20 NPSUse= 24 ParTrn=T ParDer=T DoDerP=T.
 Spin components of T(2) and E(2):
     alpha-alpha T2 =       0.2073436577D-01 E2=     -0.4566138828D-01
     alpha-beta  T2 =       0.1576673969D+00 E2=     -0.3117627146D+00
     beta-beta   T2 =       0.2073436577D-01 E2=     -0.4566138828D-01
 ANorm=    0.1095050742D+01
 E2 =    -0.4030854912D+00 EUMP2 =    -0.19740782636323D+03
          IDoAtm=1111111111
          Differentiating once with respect to electric field.
                with respect to dipole field.
          Differentiating once with respect to nuclear coordinates.
          Keep R1 ints in memory in canonical form, NReq=3102463.
          There are     1 degrees of freedom in the 1st order CPHF.  IDoFFX=0.
 LinEq1:  Iter=  0 NonCon=     1 RMS=8.91D-03 Max=8.41D-02
 AX will form     1 AO Fock derivatives at one time.
 LinEq1:  Iter=  1 NonCon=     1 RMS=3.46D-03 Max=3.00D-02
 LinEq1:  Iter=  2 NonCon=     1 RMS=1.18D-03 Max=1.41D-02
 LinEq1:  Iter=  3 NonCon=     1 RMS=3.89D-04 Max=3.82D-03
 LinEq1:  Iter=  4 NonCon=     1 RMS=1.29D-04 Max=1.13D-03
 LinEq1:  Iter=  5 NonCon=     1 RMS=4.02D-05 Max=3.03D-04
 LinEq1:  Iter=  6 NonCon=     1 RMS=1.15D-05 Max=9.76D-05
 LinEq1:  Iter=  7 NonCon=     1 RMS=3.51D-06 Max=2.37D-05
 LinEq1:  Iter=  8 NonCon=     1 RMS=6.34D-07 Max=6.00D-06
 LinEq1:  Iter=  9 NonCon=     1 RMS=9.73D-08 Max=6.67D-07
 LinEq1:  Iter= 10 NonCon=     1 RMS=2.26D-08 Max=2.69D-07
 LinEq1:  Iter= 11 NonCon=     1 RMS=4.05D-09 Max=3.03D-08
 LinEq1:  Iter= 12 NonCon=     1 RMS=9.88D-10 Max=2.08D-08
 LinEq1:  Iter= 13 NonCon=     1 RMS=2.48D-10 Max=3.63D-09
 LinEq1:  Iter= 14 NonCon=     0 RMS=5.25D-11 Max=4.90D-10
 Linear equations converged to 1.000D-10 1.000D-09 after    14 iterations.
 End of Minotr Frequency-dependent properties file   721 does not exist.
 End of Minotr Frequency-dependent properties file   722 does not exist.

 **********************************************************************

            Population analysis using the SCF density.

 **********************************************************************

 Orbital symmetries:
       Occupied  (A) (A) (A) (A) (A) (A) (A) (A) (A) (A) (A) (A)
                 (A) (A) (A) (A) (A) (A) (A) (A)
       Virtual   (A) (A) (A) (A) (A) (A) (A) (A) (A) (A) (A) (A)
                 (A) (A) (A) (A) (A) (A) (A) (A) (A) (A) (A) (A)
                 (A) (A) (A) (A) (A) (A) (A) (A) (A) (A) (A) (A)
                 (A) (A) (A) (A) (A) (A) (A) (A) (A)
 The electronic state is 1-A.
 Alpha  occ. eigenvalues --  -26.30901 -11.36890 -11.30988  -1.62463  -1.11189
 Alpha  occ. eigenvalues --   -1.01207  -0.81302  -0.74122  -0.68827  -0.68707
 Alpha  occ. eigenvalues --   -0.64641  -0.61709  -0.54912  -0.47361  -0.46496
 Alpha  occ. eigenvalues --   -0.44522  -0.40586  -0.39821  -0.37503  -0.28839
 Alpha virt. eigenvalues --   -0.03532   0.07916   0.08724   0.09256   0.11312
 Alpha virt. eigenvalues --    0.12677   0.13248   0.14504   0.15567   0.19372
 Alpha virt. eigenvalues --    0.22500   0.30014   0.31966   0.39211   0.43307
 Alpha virt. eigenvalues --    0.45753   0.48486   0.49596   0.50263   0.52669
 Alpha virt. eigenvalues --    0.54764   0.55839   0.61675   0.62134   0.63463
 Alpha virt. eigenvalues --    0.64938   0.66412   0.79871   0.90059   1.09928
 Alpha virt. eigenvalues --    1.16583   1.18195   1.22718   1.24439   1.28638
 Alpha virt. eigenvalues --    1.29969   1.44225   1.46942   2.28549   6.80530
 Alpha virt. eigenvalues --   12.02346  13.57432  23.68251  24.00161  55.16233
          Condensed to atoms (all electrons):
              1          2          3          4          5          6
     1  C    4.943683   0.344982   0.007898   0.000000   0.000003  -0.039249
     2  C    0.344982   6.122313  -0.036648   0.000071   0.000079   0.171804
     3  H    0.007898  -0.036648   0.881955   0.000018   0.000007   0.350438
     4  H    0.000000   0.000071   0.000018   0.870810  -0.012436  -0.006851
     5  H    0.000003   0.000079   0.000007  -0.012436   0.847180  -0.008821
     6  Sn  -0.039249   0.171804   0.350438  -0.006851  -0.008821   2.746241
     7  Sn  -0.001341  -0.023567  -0.008727   0.329625   0.338834   0.219355
     8  Br  -0.097489   0.183390   0.001133  -0.000058   0.001575  -0.043889
     9  F    0.214516  -0.058919  -0.000007   0.000000   0.000000   0.000930
    10  H    0.393876  -0.045404  -0.000490   0.000000   0.000000  -0.000734
              7          8          9         10
     1  C   -0.001341  -0.097489   0.214516   0.393876
     2  C   -0.023567   0.183390  -0.058919  -0.045404
     3  H   -0.008727   0.001133  -0.000007  -0.000490
     4  H    0.329625  -0.000058   0.000000   0.000000
     5  H    0.338834   0.001575   0.000000   0.000000
     6  Sn   0.219355  -0.043889   0.000930  -0.000734
     7  Sn   2.751466  -0.000989   0.000003  -0.000131
     8  Br  -0.000989   6.891369   0.000628   0.002470
     9  F    0.000003   0.000628   9.215048  -0.042450
    10  H   -0.000131   0.002470  -0.042450   0.463060
 Mulliken atomic charges:
              1
     1  C    0.233121
     2  C   -0.658101
     3  H   -0.195577
     4  H   -0.181180
     5  H   -0.166422
     6  Sn   0.610776
     7  Sn   0.395471
     8  Br   0.061860
     9  F   -0.329750
    10  H    0.229802
 Sum of Mulliken atomic charges =   0.00000
 Mulliken charges with hydrogens summed into heavy atoms:
              1
     1  C    0.462923
     2  C   -0.658101
     6  Sn   0.415199
     7  Sn   0.047869
     8  Br   0.061860
     9  F   -0.329750
 Sum of Mulliken charges with hydrogens summed into heavy atoms =   0.00000
 Electronic spatial extent (au):  <R**2>=           1376.0275
 Charge=              0.0000 electrons
 Dipole moment (field-independent basis, Debye):
    X=              3.3277    Y=              2.1450    Z=              0.1179  Tot=              3.9609
 Quadrupole moment (field-independent basis, Debye-Ang):
   XX=            -79.1982   YY=            -64.1603   ZZ=            -68.0442
   XY=             -5.1742   XZ=              5.8809   YZ=             -1.8575
 Traceless Quadrupole moment (field-independent basis, Debye-Ang):
   XX=             -8.7306   YY=              6.3072   ZZ=              2.4234
   XY=             -5.1742   XZ=              5.8809   YZ=             -1.8575
 Octapole moment (field-independent basis, Debye-Ang**2):
  XXX=            145.6205  YYY=             -3.1711  ZZZ=            -15.0858  XYY=             20.0652
  XXY=             -3.4280  XXZ=             -5.3870  XZZ=             33.7497  YZZ=             -0.8472
  YYZ=             -4.0587  XYZ=             -7.3503
 Hexadecapole moment (field-independent basis, Debye-Ang**3):
 XXXX=          -2279.3517 YYYY=           -589.8760 ZZZZ=           -250.0691 XXXY=             19.7221
 XXXZ=            172.7088 YYYX=             26.0846 YYYZ=            -34.6642 ZZZX=             67.7328
 ZZZY=            -34.8175 XXYY=           -404.7536 XXZZ=           -386.5101 YYZZ=           -128.6553
 XXYZ=            -25.2353 YYXZ=             21.6768 ZZXY=              1.2743
 N-N= 1.337395781471D+02 E-N=-7.249354185511D+02  KE= 1.841064912310D+02
   1 Symmetry operations used in ECPInt.
 ECPInt:  NShTT=     780 NPrTT=    3579 LenC2=     767 LenP2D=    2848.
 LDataN:  DoStor=T MaxTD1= 6 Len=  172
 Calling FoFJK, ICntrl=      2127 FMM=F ISym2X=0 I1Cent= 0 IOpClX= 0 NMat=1 NMatS=1 NMatT=0.
 ***** Axes restored to original set *****
 -------------------------------------------------------------------
 Center     Atomic                   Forces (Hartrees/Bohr)
 Number     Number              X              Y              Z
 -------------------------------------------------------------------
      1        6          -0.014660517    0.018181935   -0.006633431
      2        6          -0.010241830   -0.036743951    0.015102290
      3        1          -0.003273635    0.002943075   -0.001407253
      4        1          -0.004264643   -0.000227364    0.000638491
      5        1           0.003614068   -0.002316561    0.001278369
      6       50          -0.002459728   -0.008796647   -0.001837164
      7       50           0.001795117    0.008507878    0.001087796
      8       35           0.007185557   -0.006064111    0.002015901
      9        9           0.033896186    0.014768140   -0.006610778
     10        1          -0.011590574    0.009747606   -0.003634219
 -------------------------------------------------------------------
 Cartesian Forces:  Max     0.036743951 RMS     0.011891254

 GradGradGradGradGradGradGradGradGradGradGradGradGradGradGradGradGradGrad
 Berny optimization.
 Internal  Forces:  Max     0.046540900 RMS     0.011112120
 Search for a local minimum.
 Step number   1 out of a maximum of   43
 All quantities printed in internal units (Hartrees-Bohrs-Radians)
 Mixed Optimization -- RFO/linear search
 Second derivative matrix not updated -- first step.
     Eigenvalues ---    0.00230   0.00230   0.01664   0.03056   0.03056
     Eigenvalues ---    0.03648   0.04916   0.06719   0.11617   0.11645
     Eigenvalues ---    0.11871   0.11991   0.12110   0.15722   0.16000
     Eigenvalues ---    0.16000   0.16000   0.22000   0.23607   0.24993
     Eigenvalues ---    0.25000   0.37147   0.50281   0.602511000.00000
     Eigenvalues --- 1000.000001000.000001000.000001000.000001000.00000
     Eigenvalues --- 1000.000001000.000001000.00000
 RFO step:  Lambda=-8.96714373D-03 EMin= 2.30000000D-03
 Linear search not attempted -- first point.
 Iteration  1 RMS(Cart)=  0.04302437 RMS(Int)=  0.00024829
 Iteration  2 RMS(Cart)=  0.00049754 RMS(Int)=  0.00002618
 Iteration  3 RMS(Cart)=  0.00000012 RMS(Int)=  0.00002618
 Variable       Old X    -DE/DX   Delta X   Delta X   Delta X     New X
                                 (Linear)    (Quad)   (Total)
    R1        2.50742   0.04654   0.00000   0.07611   0.07611   2.58354
    R2        2.59583   0.03755   0.00000   0.07337   0.07337   2.66920
    R3        2.02325   0.01555   0.00000   0.04088   0.04088   2.06413
    R4        4.11709   0.00413   0.00000   0.03303   0.03303   4.15012
    R5        3.69842   0.00961   0.00000   0.05780   0.05780   3.75623
    R6        3.27795   0.00448   0.00000   0.03505   0.03505   3.31300
    R7        3.26980   0.00412   0.00000   0.03199   0.03199   3.30179
    R8        3.26180   0.00423   0.00000   0.03251   0.03251   3.29431
    R9        5.32691  -0.00677   0.00000  -0.08895  -0.08895   5.23796
    A1        2.16853   0.00218   0.00000   0.00951   0.00951   2.17804
    A2        2.17735  -0.00193   0.00000  -0.00971  -0.00971   2.16765
    A3        1.93729  -0.00025   0.00000   0.00018   0.00018   1.93747
    A4        2.15138  -0.00326   0.00000  -0.01251  -0.01252   2.13886
    A5        2.07806   0.00234   0.00000   0.00912   0.00911   2.08717
    A6        2.05335   0.00092   0.00000   0.00360   0.00359   2.05694
    A7        1.70064   0.00193   0.00000   0.02124   0.02119   1.72183
    A8        1.97003  -0.00053   0.00000   0.00124   0.00120   1.97123
    A9        2.00396  -0.00070   0.00000   0.00037   0.00027   2.00423
   A10        1.77031   0.00256   0.00000   0.02147   0.02148   1.79180
   A11        1.93341  -0.00136   0.00000  -0.00477  -0.00476   1.92864
   A12        1.98966  -0.00208   0.00000  -0.00922  -0.00921   1.98045
    D1        3.10538   0.00029   0.00000   0.00897   0.00898   3.11436
    D2       -0.00498   0.00008   0.00000   0.00038   0.00037  -0.00460
    D3       -0.04136   0.00017   0.00000   0.00588   0.00589  -0.03547
    D4        3.13147  -0.00004   0.00000  -0.00271  -0.00271   3.12875
    D5        0.09135   0.00005   0.00000   0.00762   0.00758   0.09893
    D6        2.20261   0.00013   0.00000   0.02066   0.02071   2.22332
    D7       -3.08106   0.00028   0.00000   0.01619   0.01614  -3.06492
    D8       -0.96981   0.00036   0.00000   0.02923   0.02927  -0.94053
    D9        3.11004  -0.00035   0.00000  -0.00874  -0.00874   3.10130
   D10        1.12669  -0.00140   0.00000  -0.02691  -0.02690   1.09979
   D11       -1.24485   0.00131   0.00000   0.01918   0.01917  -1.22569
   D12        3.05499   0.00026   0.00000   0.00100   0.00101   3.05599
         Item               Value     Threshold  Converged?
 Maximum Force            0.046541     0.000450     NO 
 RMS     Force            0.011112     0.000300     NO 
 Maximum Displacement     0.117455     0.001800     NO 
 RMS     Displacement     0.043174     0.001200     NO 
 Predicted change in Energy=-4.630990D-03
 GradGradGradGradGradGradGradGradGradGradGradGradGradGradGradGradGradGrad

                          Input orientation:                          
 ---------------------------------------------------------------------
 Center     Atomic      Atomic             Coordinates (Angstroms)
 Number     Number       Type             X           Y           Z
 ---------------------------------------------------------------------
      1          6           0        2.214107    2.909994   -0.247178
      2          6           0        1.976128    1.652341    0.233208
      3          1           0       -0.961509    2.250600   -0.026959
      4          1           0       -2.151214   -2.104756   -0.223532
      5          1           0        0.471284   -2.825336   -0.049063
      6         50           0       -0.050487    0.897266    0.615005
      7         50           0       -0.548916   -1.532860   -0.621512
      8         35           0        3.506939    0.453439    0.645807
      9          9           0        3.496428    3.454592   -0.479914
     10          1           0        1.431377    3.625400   -0.509154
 ---------------------------------------------------------------------
                    Distance matrix (angstroms):
                    1          2          3          4          5
     1  C    0.000000
     2  C    1.367149   0.000000
     3  H    3.250820   3.009204   0.000000
     4  H    6.648632   5.599941   4.519200   0.000000
     5  H    5.997558   4.732212   5.274326   2.725283   0.000000
     6  Sn   3.150051   2.196150   1.753166   3.758767   3.817198
     7  Sn   5.245320   4.153541   3.852051   1.747229   1.743273
     8  Br   2.916077   1.987710   4.863068   6.270152   4.521992
     9  F    1.412480   2.463323   4.639823   7.928930   6.983883
    10  H    1.092292   2.177341   2.801515   6.763965   6.538001
                    6          7          8          9         10
     6  Sn   0.000000
     7  Sn   2.771808   0.000000
     8  Br   3.585138   4.690569   0.000000
     9  F    4.507701   6.423358   3.205352   0.000000
    10  H    3.301873   5.526466   3.962730   2.072309   0.000000
 Stoichiometry    C2H4BrFSn2
 Framework group  C1[X(C2H4BrFSn2)]
 Deg. of freedom    24
 Full point group                 C1      NOp   1
 Largest Abelian subgroup         C1      NOp   1
 Largest concise Abelian subgroup C1      NOp   1
                         Standard orientation:                         
 ---------------------------------------------------------------------
 Center     Atomic      Atomic             Coordinates (Angstroms)
 Number     Number       Type             X           Y           Z
 ---------------------------------------------------------------------
      1          6           0       -2.557047    1.236391    0.822613
      2          6           0       -1.676600    0.437707    0.147324
      3          1           0        0.295770    2.705175    0.301133
      4          1           0        3.895606    0.024305   -0.225444
      5          1           0        2.256147   -2.150027   -0.333259
      6         50           0        0.312370    1.132232   -0.472925
      7         50           0        2.351968   -0.551714    0.356100
      8         35           0       -2.205864   -1.415962   -0.337214
      9          9           0       -3.857334    0.849826    1.216212
     10          1           0       -2.341252    2.260322    1.135823
 ---------------------------------------------------------------------
 Rotational constants (GHZ):      1.0430824      0.3248852      0.2709816
 Standard basis: SDD (6D, 10F)
 There are    65 symmetry adapted basis functions of A   symmetry.
 Integral buffers will be    131072 words long.
 Raffenetti 1 integral format.
 Two-electron integral symmetry is turned on.
    65 basis functions,   139 primitive gaussians,    65 cartesian basis functions
    20 alpha electrons       20 beta electrons
       nuclear repulsion energy       131.2408678564 Hartrees.
 NAtoms=   10 NActive=   10 NUniq=   10 SFac= 7.50D-01 NAtFMM=   80 NAOKFM=F Big=F
 One-electron integrals computed using PRISM.
   1 Symmetry operations used in ECPInt.
 ECPInt:  NShTT=     780 NPrTT=    3579 LenC2=     767 LenP2D=    2840.
 LDataN:  DoStor=T MaxTD1= 5 Len=  102
 NBasis=    65 RedAO= T  NBF=    65
 NBsUse=    65 1.00D-06 NBFU=    65
 Initial guess read from the read-write file.
 B after Tr=     0.000000    0.000000    0.000000
         Rot=    1.000000    0.000000    0.000000    0.000000 Ang=   0.00 deg.
 Initial guess orbital symmetries:
       Occupied  (A) (A) (A) (A) (A) (A) (A) (A) (A) (A) (A) (A)
                 (A) (A) (A) (A) (A) (A) (A) (A)
       Virtual   (A) (A) (A) (A) (A) (A) (A) (A) (A) (A) (A) (A)
                 (A) (A) (A) (A) (A) (A) (A) (A) (A) (A) (A) (A)
                 (A) (A) (A) (A) (A) (A) (A) (A) (A) (A) (A) (A)
                 (A) (A) (A) (A) (A) (A) (A) (A) (A)
 Harris functional with IExCor=  205 diagonalized for initial guess.
 ExpMin= 3.61D-02 ExpMax= 9.99D+03 ExpMxC= 1.51D+03 IAcc=3 IRadAn=         0 AccDes= 0.00D+00
 HarFok:  IExCor=  205 AccDes= 0.00D+00 IRadAn=         0 IDoV= 1
 ScaDFX=  1.000000  1.000000  1.000000  1.000000
 Defaulting to unpruned grid for atomic number  50.
 Defaulting to unpruned grid for atomic number  50.
 Defaulting to unpruned grid for atomic number  50.
 Defaulting to unpruned grid for atomic number  50.
 Defaulting to unpruned grid for atomic number  50.
 Defaulting to unpruned grid for atomic number  50.
 Defaulting to unpruned grid for atomic number  50.
 Defaulting to unpruned grid for atomic number  50.
 Defaulting to unpruned grid for atomic number  50.
 Defaulting to unpruned grid for atomic number  50.
 Defaulting to unpruned grid for atomic number  50.
 Defaulting to unpruned grid for atomic number  50.
 Defaulting to unpruned grid for atomic number  50.
 Defaulting to unpruned grid for atomic number  50.
 Defaulting to unpruned grid for atomic number  50.
 Defaulting to unpruned grid for atomic number  50.
 Defaulting to unpruned grid for atomic number  50.
 Defaulting to unpruned grid for atomic number  50.
 Defaulting to unpruned grid for atomic number  50.
 Defaulting to unpruned grid for atomic number  50.
 Defaulting to unpruned grid for atomic number  50.
 Defaulting to unpruned grid for atomic number  50.
 Defaulting to unpruned grid for atomic number  50.
 Defaulting to unpruned grid for atomic number  50.
 FoFCou: FMM=F IPFlag=           0 FMFlag=      100000 FMFlg1=           0
         NFxFlg=           0 DoJE=T BraDBF=F KetDBF=T FulRan=T
         Omega=  0.000000  0.000000  1.000000  0.000000  0.000000 ICntrl=     500 IOpCl=  0
         NMat0=    1 NMatS0=    1 NMatT0=    0 NMatD0=    1 NMtDS0=    0 NMtDT0=    0
         I1Cent=           4 NGrid=           0.
 Petite list used in FoFCou.
 Requested convergence on RMS density matrix=1.00D-08 within 128 cycles.
 Requested convergence on MAX density matrix=1.00D-06.
 Requested convergence on             energy=1.00D-06.
 No special actions if energy rises.
 Keep R1 ints in memory in canonical form, NReq=3134494.
 SCF Done:  E(RHF) =  -197.000254094     A.U. after   13 cycles
             Convg  =    0.5553D-08             -V/T =  2.0718
 ExpMin= 3.61D-02 ExpMax= 9.99D+03 ExpMxC= 1.51D+03 IAcc=3 IRadAn=         5 AccDes= 0.00D+00
 HarFok:  IExCor=  205 AccDes= 0.00D+00 IRadAn=         5 IDoV=-2
 ScaDFX=  1.000000  1.000000  1.000000  1.000000
 Defaulting to unpruned grid for atomic number  50.
 Defaulting to unpruned grid for atomic number  50.
 Defaulting to unpruned grid for atomic number  50.
 Defaulting to unpruned grid for atomic number  50.
 Defaulting to unpruned grid for atomic number  50.
 Defaulting to unpruned grid for atomic number  50.
 Defaulting to unpruned grid for atomic number  50.
 Defaulting to unpruned grid for atomic number  50.
 Defaulting to unpruned grid for atomic number  50.
 Defaulting to unpruned grid for atomic number  50.
 Defaulting to unpruned grid for atomic number  50.
 Defaulting to unpruned grid for atomic number  50.
 Defaulting to unpruned grid for atomic number  50.
 Defaulting to unpruned grid for atomic number  50.
 Defaulting to unpruned grid for atomic number  50.
 Defaulting to unpruned grid for atomic number  50.
 Defaulting to unpruned grid for atomic number  50.
 Defaulting to unpruned grid for atomic number  50.
 Defaulting to unpruned grid for atomic number  50.
 Defaulting to unpruned grid for atomic number  50.
 Defaulting to unpruned grid for atomic number  50.
 Defaulting to unpruned grid for atomic number  50.
 Defaulting to unpruned grid for atomic number  50.
 Defaulting to unpruned grid for atomic number  50.
 Range of M.O.s used for correlation:     4    65
 NBasis=    65 NAE=    20 NBE=    20 NFC=     3 NFV=     0
 NROrb=     62 NOA=    17 NOB=    17 NVA=    45 NVB=    45
 Fully direct method using O(ONN) memory.
 JobTyp=1 Pass  1:  I=   4 to  20 NPSUse= 24 ParTrn=T ParDer=T DoDerP=T.
 Spin components of T(2) and E(2):
     alpha-alpha T2 =       0.2162720987D-01 E2=     -0.4670846985D-01
     alpha-beta  T2 =       0.1645076799D+00 E2=     -0.3187140390D+00
     beta-beta   T2 =       0.2162720987D-01 E2=     -0.4670846985D-01
 ANorm=    0.1098982302D+01
 E2 =    -0.4121309787D+00 EUMP2 =    -0.19741238507272D+03
          IDoAtm=1111111111
          Differentiating once with respect to electric field.
                with respect to dipole field.
          Differentiating once with respect to nuclear coordinates.
          Keep R1 ints in memory in canonical form, NReq=3102463.
          There are     1 degrees of freedom in the 1st order CPHF.  IDoFFX=0.
 LinEq1:  Iter=  0 NonCon=     1 RMS=9.10D-03 Max=8.23D-02
 AX will form     1 AO Fock derivatives at one time.
 LinEq1:  Iter=  1 NonCon=     1 RMS=3.68D-03 Max=3.11D-02
 LinEq1:  Iter=  2 NonCon=     1 RMS=1.21D-03 Max=1.37D-02
 LinEq1:  Iter=  3 NonCon=     1 RMS=4.19D-04 Max=3.84D-03
 LinEq1:  Iter=  4 NonCon=     1 RMS=1.42D-04 Max=1.28D-03
 LinEq1:  Iter=  5 NonCon=     1 RMS=4.63D-05 Max=3.57D-04
 LinEq1:  Iter=  6 NonCon=     1 RMS=1.35D-05 Max=1.16D-04
 LinEq1:  Iter=  7 NonCon=     1 RMS=4.01D-06 Max=2.82D-05
 LinEq1:  Iter=  8 NonCon=     1 RMS=7.34D-07 Max=6.19D-06
 LinEq1:  Iter=  9 NonCon=     1 RMS=1.28D-07 Max=1.56D-06
 LinEq1:  Iter= 10 NonCon=     1 RMS=3.13D-08 Max=2.37D-07
 LinEq1:  Iter= 11 NonCon=     1 RMS=8.68D-09 Max=1.45D-07
 LinEq1:  Iter= 12 NonCon=     1 RMS=1.84D-09 Max=1.56D-08
 LinEq1:  Iter= 13 NonCon=     1 RMS=3.69D-10 Max=3.77D-09
 LinEq1:  Iter= 14 NonCon=     0 RMS=5.87D-11 Max=4.68D-10
 Linear equations converged to 1.000D-10 1.000D-09 after    14 iterations.
 End of Minotr Frequency-dependent properties file   721 does not exist.
 End of Minotr Frequency-dependent properties file   722 does not exist.
   1 Symmetry operations used in ECPInt.
 ECPInt:  NShTT=     780 NPrTT=    3579 LenC2=     767 LenP2D=    2840.
 LDataN:  DoStor=T MaxTD1= 6 Len=  172
 Calling FoFJK, ICntrl=      2127 FMM=F ISym2X=0 I1Cent= 0 IOpClX= 0 NMat=1 NMatS=1 NMatT=0.
 ***** Axes restored to original set *****
 -------------------------------------------------------------------
 Center     Atomic                   Forces (Hartrees/Bohr)
 Number     Number              X              Y              Z
 -------------------------------------------------------------------
      1        6          -0.009890507   -0.004639036    0.001936303
      2        6           0.002297948   -0.000424828    0.000256778
      3        1           0.000127332   -0.000599007    0.000436820
      4        1           0.000280714    0.000787482   -0.000291776
      5        1           0.000218696    0.000887779   -0.000276641
      6       50          -0.000276062    0.000167318   -0.001655183
      7       50          -0.000207703   -0.000473079    0.001315369
      8       35          -0.000951344    0.001686498   -0.000693477
      9        9           0.007938341    0.002298754   -0.001029680
     10        1           0.000462585    0.000308119    0.000001487
 -------------------------------------------------------------------
 Cartesian Forces:  Max     0.009890507 RMS     0.002643378

 GradGradGradGradGradGradGradGradGradGradGradGradGradGradGradGradGradGrad
 Berny optimization.
 Using GEDIIS/GDIIS optimizer.
 Internal  Forces:  Max     0.008262800 RMS     0.001726173
 Search for a local minimum.
 Step number   2 out of a maximum of   43
 All quantities printed in internal units (Hartrees-Bohrs-Radians)
 Mixed Optimization -- RFO/linear search
 Update second derivatives using D2CorX and points    1    2
 DE= -4.56D-03 DEPred=-4.63D-03 R= 9.84D-01
 SS=  1.41D+00  RLast= 1.81D-01 DXNew= 5.0454D-01 5.4376D-01
 Trust test= 9.84D-01 RLast= 1.81D-01 DXMaxT set to 5.05D-01
 Use linear search instead of GDIIS.
     Eigenvalues ---    0.00230   0.00230   0.01668   0.03056   0.03057
     Eigenvalues ---    0.03522   0.04914   0.06620   0.11650   0.11739
     Eigenvalues ---    0.11913   0.12039   0.12264   0.15841   0.15983
     Eigenvalues ---    0.16000   0.16313   0.22166   0.23558   0.24895
     Eigenvalues ---    0.25120   0.37256   0.44482   0.646841000.00000
     Eigenvalues --- 1000.000001000.000001000.000001000.000001000.00000
     Eigenvalues --- 1000.000001000.000001000.00000
 RFO step:  Lambda=-3.82554005D-04 EMin= 2.29960790D-03
 Quartic linear search produced a step of  0.05261.
 Iteration  1 RMS(Cart)=  0.06146365 RMS(Int)=  0.00094534
 Iteration  2 RMS(Cart)=  0.00144462 RMS(Int)=  0.00001571
 Iteration  3 RMS(Cart)=  0.00000068 RMS(Int)=  0.00001570
 Variable       Old X    -DE/DX   Delta X   Delta X   Delta X     New X
                                 (Linear)    (Quad)   (Total)
    R1        2.58354  -0.00245   0.00400  -0.00551  -0.00150   2.58203
    R2        2.66920   0.00826   0.00386   0.01611   0.01997   2.68917
    R3        2.06413  -0.00013   0.00215  -0.00100   0.00115   2.06529
    R4        4.15012  -0.00048   0.00174  -0.00467  -0.00293   4.14719
    R5        3.75623  -0.00189   0.00304  -0.01336  -0.01032   3.74591
    R6        3.31300  -0.00069   0.00184  -0.00646  -0.00461   3.30839
    R7        3.30179  -0.00058   0.00168  -0.00543  -0.00375   3.29804
    R8        3.29431  -0.00062   0.00171  -0.00573  -0.00402   3.29029
    R9        5.23796  -0.00144  -0.00468  -0.02193  -0.02661   5.21135
    A1        2.17804  -0.00222   0.00050  -0.01072  -0.01022   2.16782
    A2        2.16765   0.00165  -0.00051   0.00901   0.00850   2.17614
    A3        1.93747   0.00057   0.00001   0.00174   0.00174   1.93922
    A4        2.13886  -0.00029  -0.00066  -0.00105  -0.00171   2.13715
    A5        2.08717  -0.00136   0.00048  -0.00584  -0.00536   2.08181
    A6        2.05694   0.00165   0.00019   0.00688   0.00707   2.06401
    A7        1.72183   0.00043   0.00112   0.00863   0.00969   1.73153
    A8        1.97123  -0.00005   0.00006   0.00202   0.00206   1.97329
    A9        2.00423   0.00012   0.00001   0.00583   0.00579   2.01001
   A10        1.79180   0.00131   0.00113   0.01269   0.01383   1.80562
   A11        1.92864  -0.00076  -0.00025  -0.00262  -0.00286   1.92578
   A12        1.98045  -0.00097  -0.00048  -0.00408  -0.00456   1.97588
    D1        3.11436   0.00000   0.00047  -0.00026   0.00021   3.11457
    D2       -0.00460  -0.00001   0.00002   0.00000   0.00002  -0.00458
    D3       -0.03547   0.00010   0.00031   0.00323   0.00354  -0.03193
    D4        3.12875   0.00009  -0.00014   0.00349   0.00335   3.13210
    D5        0.09893   0.00000   0.00040   0.06499   0.06537   0.16431
    D6        2.22332   0.00037   0.00109   0.07782   0.07893   2.30225
    D7       -3.06492  -0.00003   0.00085   0.06458   0.06541  -2.99951
    D8       -0.94053   0.00034   0.00154   0.07741   0.07896  -0.86157
    D9        3.10130  -0.00003  -0.00046  -0.00903  -0.00951   3.09179
   D10        1.09979  -0.00058  -0.00142  -0.02070  -0.02212   1.07767
   D11       -1.22569   0.00056   0.00101   0.00710   0.00811  -1.21757
   D12        3.05599   0.00000   0.00005  -0.00457  -0.00451   3.05149
         Item               Value     Threshold  Converged?
 Maximum Force            0.008263     0.000450     NO 
 RMS     Force            0.001726     0.000300     NO 
 Maximum Displacement     0.188875     0.001800     NO 
 RMS     Displacement     0.061338     0.001200     NO 
 Predicted change in Energy=-1.955507D-04
 GradGradGradGradGradGradGradGradGradGradGradGradGradGradGradGradGradGrad

                          Input orientation:                          
 ---------------------------------------------------------------------
 Center     Atomic      Atomic             Coordinates (Angstroms)
 Number     Number       Type             X           Y           Z
 ---------------------------------------------------------------------
      1          6           0        2.215170    2.921320   -0.217725
      2          6           0        1.966270    1.646569    0.206514
      3          1           0       -0.977761    2.238462   -0.099143
      4          1           0       -2.148548   -2.108488   -0.200226
      5          1           0        0.488683   -2.811631    0.005037
      6         50           0       -0.065946    0.902373    0.570556
      7         50           0       -0.544920   -1.548030   -0.600407
      8         35           0        3.488580    0.423162    0.545859
      9          9           0        3.517474    3.452263   -0.434898
     10          1           0        1.445136    3.664680   -0.438858
 ---------------------------------------------------------------------
                    Distance matrix (angstroms):
                    1          2          3          4          5
     1  C    0.000000
     2  C    1.366353   0.000000
     3  H    3.267287   3.018457   0.000000
     4  H    6.658927   5.585483   4.502991   0.000000
     5  H    5.991420   4.701000   5.259729   2.737066   0.000000
     6  Sn   3.146590   2.194597   1.750724   3.741205   3.797532
     7  Sn   5.266844   4.142785   3.843975   1.745245   1.741144
     8  Br   2.906102   1.982248   4.864108   6.224397   4.444745
     9  F    1.423046   2.465395   4.668317   7.942344   6.971620
    10  H    1.092902   2.181938   2.831949   6.804482   6.561589
                    6          7          8          9         10
     6  Sn   0.000000
     7  Sn   2.757725   0.000000
     8  Br   3.586769   4.633428   0.000000
     9  F    4.511516   6.444639   3.184049   0.000000
    10  H    3.306452   5.582004   3.956358   2.083200   0.000000
 Stoichiometry    C2H4BrFSn2
 Framework group  C1[X(C2H4BrFSn2)]
 Deg. of freedom    24
 Full point group                 C1      NOp   1
 Largest Abelian subgroup         C1      NOp   1
 Largest concise Abelian subgroup C1      NOp   1
                         Standard orientation:                         
 ---------------------------------------------------------------------
 Center     Atomic      Atomic             Coordinates (Angstroms)
 Number     Number       Type             X           Y           Z
 ---------------------------------------------------------------------
      1          6           0       -2.597315    1.234462    0.753449
      2          6           0       -1.679312    0.436067    0.131552
      3          1           0        0.299214    2.701233    0.387563
      4          1           0        3.881096    0.040644   -0.219331
      5          1           0        2.223185   -2.129070   -0.406956
      6         50           0        0.316003    1.154714   -0.432824
      7         50           0        2.337521   -0.557375    0.333507
      8         35           0       -2.165704   -1.432328   -0.317703
      9          9           0       -3.911046    0.817395    1.107322
     10          1           0       -2.420919    2.271959    1.048272
 ---------------------------------------------------------------------
 Rotational constants (GHZ):      1.0518088      0.3300307      0.2712304
 Standard basis: SDD (6D, 10F)
 There are    65 symmetry adapted basis functions of A   symmetry.
 Integral buffers will be    131072 words long.
 Raffenetti 1 integral format.
 Two-electron integral symmetry is turned on.
    65 basis functions,   139 primitive gaussians,    65 cartesian basis functions
    20 alpha electrons       20 beta electrons
       nuclear repulsion energy       131.2597502190 Hartrees.
 NAtoms=   10 NActive=   10 NUniq=   10 SFac= 7.50D-01 NAtFMM=   80 NAOKFM=F Big=F
 One-electron integrals computed using PRISM.
   1 Symmetry operations used in ECPInt.
 ECPInt:  NShTT=     780 NPrTT=    3579 LenC2=     767 LenP2D=    2841.
 LDataN:  DoStor=T MaxTD1= 5 Len=  102
 NBasis=    65 RedAO= T  NBF=    65
 NBsUse=    65 1.00D-06 NBFU=    65
 Initial guess read from the read-write file.
 B after Tr=     0.000000    0.000000    0.000000
         Rot=    1.000000    0.000000    0.000000    0.000000 Ang=   0.00 deg.
 Initial guess orbital symmetries:
       Occupied  (A) (A) (A) (A) (A) (A) (A) (A) (A) (A) (A) (A)
                 (A) (A) (A) (A) (A) (A) (A) (A)
       Virtual   (A) (A) (A) (A) (A) (A) (A) (A) (A) (A) (A) (A)
                 (A) (A) (A) (A) (A) (A) (A) (A) (A) (A) (A) (A)
                 (A) (A) (A) (A) (A) (A) (A) (A) (A) (A) (A) (A)
                 (A) (A) (A) (A) (A) (A) (A) (A) (A)
 Harris functional with IExCor=  205 diagonalized for initial guess.
 ExpMin= 3.61D-02 ExpMax= 9.99D+03 ExpMxC= 1.51D+03 IAcc=3 IRadAn=         0 AccDes= 0.00D+00
 HarFok:  IExCor=  205 AccDes= 0.00D+00 IRadAn=         0 IDoV= 1
 ScaDFX=  1.000000  1.000000  1.000000  1.000000
 Defaulting to unpruned grid for atomic number  50.
 Defaulting to unpruned grid for atomic number  50.
 Defaulting to unpruned grid for atomic number  50.
 Defaulting to unpruned grid for atomic number  50.
 Defaulting to unpruned grid for atomic number  50.
 Defaulting to unpruned grid for atomic number  50.
 Defaulting to unpruned grid for atomic number  50.
 Defaulting to unpruned grid for atomic number  50.
 Defaulting to unpruned grid for atomic number  50.
 Defaulting to unpruned grid for atomic number  50.
 Defaulting to unpruned grid for atomic number  50.
 Defaulting to unpruned grid for atomic number  50.
 Defaulting to unpruned grid for atomic number  50.
 Defaulting to unpruned grid for atomic number  50.
 Defaulting to unpruned grid for atomic number  50.
 Defaulting to unpruned grid for atomic number  50.
 Defaulting to unpruned grid for atomic number  50.
 Defaulting to unpruned grid for atomic number  50.
 Defaulting to unpruned grid for atomic number  50.
 Defaulting to unpruned grid for atomic number  50.
 Defaulting to unpruned grid for atomic number  50.
 Defaulting to unpruned grid for atomic number  50.
 Defaulting to unpruned grid for atomic number  50.
 Defaulting to unpruned grid for atomic number  50.
 FoFCou: FMM=F IPFlag=           0 FMFlag=      100000 FMFlg1=           0
         NFxFlg=           0 DoJE=T BraDBF=F KetDBF=T FulRan=T
         Omega=  0.000000  0.000000  1.000000  0.000000  0.000000 ICntrl=     500 IOpCl=  0
         NMat0=    1 NMatS0=    1 NMatT0=    0 NMatD0=    1 NMtDS0=    0 NMtDT0=    0
         I1Cent=           4 NGrid=           0.
 Petite list used in FoFCou.
 Requested convergence on RMS density matrix=1.00D-08 within 128 cycles.
 Requested convergence on MAX density matrix=1.00D-06.
 Requested convergence on             energy=1.00D-06.
 No special actions if energy rises.
 Keep R1 ints in memory in canonical form, NReq=3134494.
 SCF Done:  E(RHF) =  -196.999692502     A.U. after   12 cycles
             Convg  =    0.4419D-08             -V/T =  2.0718
 ExpMin= 3.61D-02 ExpMax= 9.99D+03 ExpMxC= 1.51D+03 IAcc=3 IRadAn=         5 AccDes= 0.00D+00
 HarFok:  IExCor=  205 AccDes= 0.00D+00 IRadAn=         5 IDoV=-2
 ScaDFX=  1.000000  1.000000  1.000000  1.000000
 Defaulting to unpruned grid for atomic number  50.
 Defaulting to unpruned grid for atomic number  50.
 Defaulting to unpruned grid for atomic number  50.
 Defaulting to unpruned grid for atomic number  50.
 Defaulting to unpruned grid for atomic number  50.
 Defaulting to unpruned grid for atomic number  50.
 Defaulting to unpruned grid for atomic number  50.
 Defaulting to unpruned grid for atomic number  50.
 Defaulting to unpruned grid for atomic number  50.
 Defaulting to unpruned grid for atomic number  50.
 Defaulting to unpruned grid for atomic number  50.
 Defaulting to unpruned grid for atomic number  50.
 Defaulting to unpruned grid for atomic number  50.
 Defaulting to unpruned grid for atomic number  50.
 Defaulting to unpruned grid for atomic number  50.
 Defaulting to unpruned grid for atomic number  50.
 Defaulting to unpruned grid for atomic number  50.
 Defaulting to unpruned grid for atomic number  50.
 Defaulting to unpruned grid for atomic number  50.
 Defaulting to unpruned grid for atomic number  50.
 Defaulting to unpruned grid for atomic number  50.
 Defaulting to unpruned grid for atomic number  50.
 Defaulting to unpruned grid for atomic number  50.
 Defaulting to unpruned grid for atomic number  50.
 Range of M.O.s used for correlation:     4    65
 NBasis=    65 NAE=    20 NBE=    20 NFC=     3 NFV=     0
 NROrb=     62 NOA=    17 NOB=    17 NVA=    45 NVB=    45
 Fully direct method using O(ONN) memory.
 JobTyp=1 Pass  1:  I=   4 to  20 NPSUse= 24 ParTrn=T ParDer=T DoDerP=T.
 Spin components of T(2) and E(2):
     alpha-alpha T2 =       0.2170066323D-01 E2=     -0.4682295531D-01
     alpha-beta  T2 =       0.1650051084D+00 E2=     -0.3192872476D+00
     beta-beta   T2 =       0.2170066323D-01 E2=     -0.4682295531D-01
 ANorm=    0.1099275414D+01
 E2 =    -0.4129331582D+00 EUMP2 =    -0.19741262566004D+03
          IDoAtm=1111111111
          Differentiating once with respect to electric field.
                with respect to dipole field.
          Differentiating once with respect to nuclear coordinates.
          Keep R1 ints in memory in canonical form, NReq=3102463.
          There are     1 degrees of freedom in the 1st order CPHF.  IDoFFX=0.
 LinEq1:  Iter=  0 NonCon=     1 RMS=9.09D-03 Max=8.12D-02
 AX will form     1 AO Fock derivatives at one time.
 LinEq1:  Iter=  1 NonCon=     1 RMS=3.69D-03 Max=3.12D-02
 LinEq1:  Iter=  2 NonCon=     1 RMS=1.21D-03 Max=1.36D-02
 LinEq1:  Iter=  3 NonCon=     1 RMS=4.11D-04 Max=3.82D-03
 LinEq1:  Iter=  4 NonCon=     1 RMS=1.42D-04 Max=1.30D-03
 LinEq1:  Iter=  5 NonCon=     1 RMS=4.62D-05 Max=3.65D-04
 LinEq1:  Iter=  6 NonCon=     1 RMS=1.36D-05 Max=1.16D-04
 LinEq1:  Iter=  7 NonCon=     1 RMS=4.08D-06 Max=3.27D-05
 LinEq1:  Iter=  8 NonCon=     1 RMS=7.55D-07 Max=6.09D-06
 LinEq1:  Iter=  9 NonCon=     1 RMS=1.47D-07 Max=2.20D-06
 LinEq1:  Iter= 10 NonCon=     1 RMS=3.82D-08 Max=3.07D-07
 LinEq1:  Iter= 11 NonCon=     1 RMS=1.03D-08 Max=1.42D-07
 LinEq1:  Iter= 12 NonCon=     1 RMS=2.03D-09 Max=1.41D-08
 LinEq1:  Iter= 13 NonCon=     1 RMS=3.86D-10 Max=3.53D-09
 LinEq1:  Iter= 14 NonCon=     0 RMS=6.12D-11 Max=4.49D-10
 Linear equations converged to 1.000D-10 1.000D-09 after    14 iterations.
 End of Minotr Frequency-dependent properties file   721 does not exist.
 End of Minotr Frequency-dependent properties file   722 does not exist.
   1 Symmetry operations used in ECPInt.
 ECPInt:  NShTT=     780 NPrTT=    3579 LenC2=     767 LenP2D=    2841.
 LDataN:  DoStor=T MaxTD1= 6 Len=  172
 Calling FoFJK, ICntrl=      2127 FMM=F ISym2X=0 I1Cent= 0 IOpClX= 0 NMat=1 NMatS=1 NMatT=0.
 ***** Axes restored to original set *****
 -------------------------------------------------------------------
 Center     Atomic                   Forces (Hartrees/Bohr)
 Number     Number              X              Y              Z
 -------------------------------------------------------------------
      1        6          -0.004653999   -0.002250761    0.000898723
      2        6           0.001455937    0.000495147   -0.000171905
      3        1           0.000152534   -0.000180836    0.000510315
      4        1           0.000207248    0.000429494   -0.000192572
      5        1           0.000054630    0.000487753   -0.000126228
      6       50          -0.000129818    0.000496717   -0.000820095
      7       50          -0.000180476   -0.000828170    0.000464402
      8       35          -0.000269488    0.000346825   -0.000082862
      9        9           0.002145390    0.000922362   -0.000312340
     10        1           0.001218042    0.000081468   -0.000167437
 -------------------------------------------------------------------
 Cartesian Forces:  Max     0.004653999 RMS     0.001153326

 GradGradGradGradGradGradGradGradGradGradGradGradGradGradGradGradGradGrad
 Berny optimization.
 Using GEDIIS/GDIIS optimizer.
 Internal  Forces:  Max     0.002355162 RMS     0.000648769
 Search for a local minimum.
 Step number   3 out of a maximum of   43
 All quantities printed in internal units (Hartrees-Bohrs-Radians)
 Mixed Optimization -- En-DIIS/RFO-DIIS
 Update second derivatives using D2CorX and points    1    2    3
 DE= -2.41D-04 DEPred=-1.96D-04 R= 1.23D+00
 SS=  1.41D+00  RLast= 1.54D-01 DXNew= 8.4853D-01 4.6085D-01
 Trust test= 1.23D+00 RLast= 1.54D-01 DXMaxT set to 5.05D-01
 Use linear search instead of GDIIS.
     Eigenvalues ---    0.00229   0.00278   0.01659   0.03003   0.03062
     Eigenvalues ---    0.03076   0.04782   0.06412   0.11649   0.11857
     Eigenvalues ---    0.11906   0.12017   0.12140   0.14097   0.16000
     Eigenvalues ---    0.16097   0.16389   0.21544   0.23499   0.24481
     Eigenvalues ---    0.25597   0.37611   0.40099   0.643851000.00000
     Eigenvalues --- 1000.000001000.000001000.000001000.000001000.00000
     Eigenvalues --- 1000.000001000.000001000.00000
 RFO step:  Lambda=-8.81525226D-05 EMin= 2.28879874D-03
 Quartic linear search produced a step of  0.29009.
 Iteration  1 RMS(Cart)=  0.02237699 RMS(Int)=  0.00020829
 Iteration  2 RMS(Cart)=  0.00020534 RMS(Int)=  0.00002552
 Iteration  3 RMS(Cart)=  0.00000001 RMS(Int)=  0.00002552
 Variable       Old X    -DE/DX   Delta X   Delta X   Delta X     New X
                                 (Linear)    (Quad)   (Total)
    R1        2.58203  -0.00153  -0.00044  -0.00136  -0.00180   2.58024
    R2        2.68917   0.00236   0.00579   0.00635   0.01215   2.70131
    R3        2.06529  -0.00077   0.00033  -0.00176  -0.00142   2.06386
    R4        4.14719  -0.00026  -0.00085  -0.00181  -0.00267   4.14452
    R5        3.74591  -0.00044  -0.00299  -0.00138  -0.00437   3.74154
    R6        3.30839  -0.00041  -0.00134  -0.00322  -0.00456   3.30383
    R7        3.29804  -0.00037  -0.00109  -0.00289  -0.00398   3.29406
    R8        3.29029  -0.00037  -0.00117  -0.00274  -0.00391   3.28638
    R9        5.21135  -0.00016  -0.00772  -0.00361  -0.01133   5.20002
    A1        2.16782  -0.00061  -0.00297  -0.00259  -0.00556   2.16226
    A2        2.17614   0.00129   0.00246   0.00885   0.01131   2.18745
    A3        1.93922  -0.00069   0.00051  -0.00626  -0.00576   1.93346
    A4        2.13715  -0.00063  -0.00050  -0.00341  -0.00391   2.13324
    A5        2.08181   0.00013  -0.00156   0.00124  -0.00032   2.08149
    A6        2.06401   0.00050   0.00205   0.00214   0.00419   2.06821
    A7        1.73153   0.00007   0.00281   0.00568   0.00840   1.73992
    A8        1.97329  -0.00007   0.00060   0.00167   0.00221   1.97550
    A9        2.01001   0.00041   0.00168   0.00880   0.01041   2.02042
   A10        1.80562   0.00066   0.00401   0.00726   0.01127   1.81689
   A11        1.92578  -0.00038  -0.00083  -0.00174  -0.00256   1.92322
   A12        1.97588  -0.00055  -0.00132  -0.00317  -0.00450   1.97139
    D1        3.11457  -0.00008   0.00006  -0.00352  -0.00346   3.11111
    D2       -0.00458  -0.00005   0.00001  -0.00168  -0.00167  -0.00626
    D3       -0.03193  -0.00010   0.00103  -0.00462  -0.00359  -0.03552
    D4        3.13210  -0.00007   0.00097  -0.00278  -0.00181   3.13029
    D5        0.16431  -0.00031   0.01896  -0.05421  -0.03526   0.12905
    D6        2.30225   0.00018   0.02290  -0.03958  -0.01667   2.28558
    D7       -2.99951  -0.00034   0.01898  -0.05604  -0.03709  -3.03659
    D8       -0.86157   0.00015   0.02291  -0.04142  -0.01849  -0.88006
    D9        3.09179   0.00001  -0.00276   0.01860   0.01581   3.10761
   D10        1.07767  -0.00024  -0.00642   0.01261   0.00617   1.08384
   D11       -1.21757   0.00032   0.00235   0.03291   0.03529  -1.18228
   D12        3.05149   0.00008  -0.00131   0.02692   0.02565   3.07713
         Item               Value     Threshold  Converged?
 Maximum Force            0.002355     0.000450     NO 
 RMS     Force            0.000649     0.000300     NO 
 Maximum Displacement     0.077532     0.001800     NO 
 RMS     Displacement     0.022397     0.001200     NO 
 Predicted change in Energy=-5.789712D-05
 GradGradGradGradGradGradGradGradGradGradGradGradGradGradGradGradGradGrad

                          Input orientation:                          
 ---------------------------------------------------------------------
 Center     Atomic      Atomic             Coordinates (Angstroms)
 Number     Number       Type             X           Y           Z
 ---------------------------------------------------------------------
      1          6           0        2.208890    2.913422   -0.227973
      2          6           0        1.968913    1.642319    0.209098
      3          1           0       -0.986253    2.236517   -0.058115
      4          1           0       -2.152396   -2.092043   -0.221833
      5          1           0        0.488639   -2.808374    0.005711
      6         50           0       -0.060457    0.893885    0.571832
      7         50           0       -0.541449   -1.546921   -0.604236
      8         35           0        3.498503    0.437860    0.569348
      9          9           0        3.516829    3.449270   -0.441411
     10          1           0        1.442919    3.654745   -0.465715
 ---------------------------------------------------------------------
                    Distance matrix (angstroms):
                    1          2          3          4          5
     1  C    0.000000
     2  C    1.365402   0.000000
     3  H    3.270472   3.026133   0.000000
     4  H    6.638940   5.578202   4.485880   0.000000
     5  H    5.979366   4.694810   5.256454   2.745901   0.000000
     6  Sn   3.141361   2.193187   1.748311   3.731204   3.785330
     7  Sn   5.253627   4.139405   3.848441   1.743140   1.739075
     8  Br   2.902969   1.979936   4.872568   6.241718   4.462623
     9  F    1.429473   2.466633   4.679255   7.930604   6.966202
    10  H    1.092150   2.186756   2.842250   6.783165   6.550175
                    6          7          8          9         10
     6  Sn   0.000000
     7  Sn   2.751731   0.000000
     8  Br   3.588058   4.651653   0.000000
     9  F    4.511499   6.438793   3.176564   0.000000
    10  H    3.310436   5.569042   3.955392   2.084205   0.000000
 Stoichiometry    C2H4BrFSn2
 Framework group  C1[X(C2H4BrFSn2)]
 Deg. of freedom    24
 Full point group                 C1      NOp   1
 Largest Abelian subgroup         C1      NOp   1
 Largest concise Abelian subgroup C1      NOp   1
                         Standard orientation:                         
 ---------------------------------------------------------------------
 Center     Atomic      Atomic             Coordinates (Angstroms)
 Number     Number       Type             X           Y           Z
 ---------------------------------------------------------------------
      1          6           0       -2.577927    1.241424    0.766292
      2          6           0       -1.673788    0.436615    0.134517
      3          1           0        0.310639    2.712610    0.332949
      4          1           0        3.880652    0.050102   -0.204806
      5          1           0        2.221514   -2.129294   -0.398374
      6         50           0        0.321192    1.144208   -0.439447
      7         50           0        2.339323   -0.557700    0.336878
      8         35           0       -2.183959   -1.421736   -0.319803
      9          9           0       -3.898963    0.828757    1.124014
     10          1           0       -2.399031    2.274885    1.070832
 ---------------------------------------------------------------------
 Rotational constants (GHZ):      1.0574116      0.3286754      0.2712615
 Standard basis: SDD (6D, 10F)
 There are    65 symmetry adapted basis functions of A   symmetry.
 Integral buffers will be    131072 words long.
 Raffenetti 1 integral format.
 Two-electron integral symmetry is turned on.
    65 basis functions,   139 primitive gaussians,    65 cartesian basis functions
    20 alpha electrons       20 beta electrons
       nuclear repulsion energy       131.2318754068 Hartrees.
 NAtoms=   10 NActive=   10 NUniq=   10 SFac= 7.50D-01 NAtFMM=   80 NAOKFM=F Big=F
 One-electron integrals computed using PRISM.
   1 Symmetry operations used in ECPInt.
 ECPInt:  NShTT=     780 NPrTT=    3579 LenC2=     767 LenP2D=    2842.
 LDataN:  DoStor=T MaxTD1= 5 Len=  102
 NBasis=    65 RedAO= T  NBF=    65
 NBsUse=    65 1.00D-06 NBFU=    65
 Initial guess read from the read-write file.
 B after Tr=     0.000000    0.000000    0.000000
         Rot=    1.000000    0.000000    0.000000    0.000000 Ang=   0.00 deg.
 Initial guess orbital symmetries:
       Occupied  (A) (A) (A) (A) (A) (A) (A) (A) (A) (A) (A) (A)
                 (A) (A) (A) (A) (A) (A) (A) (A)
       Virtual   (A) (A) (A) (A) (A) (A) (A) (A) (A) (A) (A) (A)
                 (A) (A) (A) (A) (A) (A) (A) (A) (A) (A) (A) (A)
                 (A) (A) (A) (A) (A) (A) (A) (A) (A) (A) (A) (A)
                 (A) (A) (A) (A) (A) (A) (A) (A) (A)
 Harris functional with IExCor=  205 diagonalized for initial guess.
 ExpMin= 3.61D-02 ExpMax= 9.99D+03 ExpMxC= 1.51D+03 IAcc=3 IRadAn=         0 AccDes= 0.00D+00
 HarFok:  IExCor=  205 AccDes= 0.00D+00 IRadAn=         0 IDoV= 1
 ScaDFX=  1.000000  1.000000  1.000000  1.000000
 Defaulting to unpruned grid for atomic number  50.
 Defaulting to unpruned grid for atomic number  50.
 Defaulting to unpruned grid for atomic number  50.
 Defaulting to unpruned grid for atomic number  50.
 Defaulting to unpruned grid for atomic number  50.
 Defaulting to unpruned grid for atomic number  50.
 Defaulting to unpruned grid for atomic number  50.
 Defaulting to unpruned grid for atomic number  50.
 Defaulting to unpruned grid for atomic number  50.
 Defaulting to unpruned grid for atomic number  50.
 Defaulting to unpruned grid for atomic number  50.
 Defaulting to unpruned grid for atomic number  50.
 Defaulting to unpruned grid for atomic number  50.
 Defaulting to unpruned grid for atomic number  50.
 Defaulting to unpruned grid for atomic number  50.
 Defaulting to unpruned grid for atomic number  50.
 Defaulting to unpruned grid for atomic number  50.
 Defaulting to unpruned grid for atomic number  50.
 Defaulting to unpruned grid for atomic number  50.
 Defaulting to unpruned grid for atomic number  50.
 Defaulting to unpruned grid for atomic number  50.
 Defaulting to unpruned grid for atomic number  50.
 Defaulting to unpruned grid for atomic number  50.
 Defaulting to unpruned grid for atomic number  50.
 FoFCou: FMM=F IPFlag=           0 FMFlag=      100000 FMFlg1=           0
         NFxFlg=           0 DoJE=T BraDBF=F KetDBF=T FulRan=T
         Omega=  0.000000  0.000000  1.000000  0.000000  0.000000 ICntrl=     500 IOpCl=  0
         NMat0=    1 NMatS0=    1 NMatT0=    0 NMatD0=    1 NMtDS0=    0 NMtDT0=    0
         I1Cent=           4 NGrid=           0.
 Petite list used in FoFCou.
 Requested convergence on RMS density matrix=1.00D-08 within 128 cycles.
 Requested convergence on MAX density matrix=1.00D-06.
 Requested convergence on             energy=1.00D-06.
 No special actions if energy rises.
 Keep R1 ints in memory in canonical form, NReq=3134494.
 SCF Done:  E(RHF) =  -196.999408567     A.U. after   12 cycles
             Convg  =    0.5182D-08             -V/T =  2.0719
 ExpMin= 3.61D-02 ExpMax= 9.99D+03 ExpMxC= 1.51D+03 IAcc=3 IRadAn=         5 AccDes= 0.00D+00
 HarFok:  IExCor=  205 AccDes= 0.00D+00 IRadAn=         5 IDoV=-2
 ScaDFX=  1.000000  1.000000  1.000000  1.000000
 Defaulting to unpruned grid for atomic number  50.
 Defaulting to unpruned grid for atomic number  50.
 Defaulting to unpruned grid for atomic number  50.
 Defaulting to unpruned grid for atomic number  50.
 Defaulting to unpruned grid for atomic number  50.
 Defaulting to unpruned grid for atomic number  50.
 Defaulting to unpruned grid for atomic number  50.
 Defaulting to unpruned grid for atomic number  50.
 Defaulting to unpruned grid for atomic number  50.
 Defaulting to unpruned grid for atomic number  50.
 Defaulting to unpruned grid for atomic number  50.
 Defaulting to unpruned grid for atomic number  50.
 Defaulting to unpruned grid for atomic number  50.
 Defaulting to unpruned grid for atomic number  50.
 Defaulting to unpruned grid for atomic number  50.
 Defaulting to unpruned grid for atomic number  50.
 Defaulting to unpruned grid for atomic number  50.
 Defaulting to unpruned grid for atomic number  50.
 Defaulting to unpruned grid for atomic number  50.
 Defaulting to unpruned grid for atomic number  50.
 Defaulting to unpruned grid for atomic number  50.
 Defaulting to unpruned grid for atomic number  50.
 Defaulting to unpruned grid for atomic number  50.
 Defaulting to unpruned grid for atomic number  50.
 Range of M.O.s used for correlation:     4    65
 NBasis=    65 NAE=    20 NBE=    20 NFC=     3 NFV=     0
 NROrb=     62 NOA=    17 NOB=    17 NVA=    45 NVB=    45
 Fully direct method using O(ONN) memory.
 JobTyp=1 Pass  1:  I=   4 to  20 NPSUse= 24 ParTrn=T ParDer=T DoDerP=T.
 Spin components of T(2) and E(2):
     alpha-alpha T2 =       0.2172951431D-01 E2=     -0.4687415043D-01
     alpha-beta  T2 =       0.1651884024D+00 E2=     -0.3195183226D+00
     beta-beta   T2 =       0.2172951431D-01 E2=     -0.4687415043D-01
 ANorm=    0.1099385024D+01
 E2 =    -0.4132666234D+00 EUMP2 =    -0.19741267519046D+03
          IDoAtm=1111111111
          Differentiating once with respect to electric field.
                with respect to dipole field.
          Differentiating once with respect to nuclear coordinates.
          Keep R1 ints in memory in canonical form, NReq=3102463.
          There are     1 degrees of freedom in the 1st order CPHF.  IDoFFX=0.
 LinEq1:  Iter=  0 NonCon=     1 RMS=9.09D-03 Max=7.83D-02
 AX will form     1 AO Fock derivatives at one time.
 LinEq1:  Iter=  1 NonCon=     1 RMS=3.69D-03 Max=3.02D-02
 LinEq1:  Iter=  2 NonCon=     1 RMS=1.21D-03 Max=1.32D-02
 LinEq1:  Iter=  3 NonCon=     1 RMS=4.08D-04 Max=3.77D-03
 LinEq1:  Iter=  4 NonCon=     1 RMS=1.41D-04 Max=1.28D-03
 LinEq1:  Iter=  5 NonCon=     1 RMS=4.63D-05 Max=3.66D-04
 LinEq1:  Iter=  6 NonCon=     1 RMS=1.36D-05 Max=1.16D-04
 LinEq1:  Iter=  7 NonCon=     1 RMS=4.05D-06 Max=2.88D-05
 LinEq1:  Iter=  8 NonCon=     1 RMS=7.52D-07 Max=6.15D-06
 LinEq1:  Iter=  9 NonCon=     1 RMS=1.42D-07 Max=1.95D-06
 LinEq1:  Iter= 10 NonCon=     1 RMS=3.77D-08 Max=3.72D-07
 LinEq1:  Iter= 11 NonCon=     1 RMS=9.90D-09 Max=1.28D-07
 LinEq1:  Iter= 12 NonCon=     1 RMS=1.98D-09 Max=1.34D-08
 LinEq1:  Iter= 13 NonCon=     1 RMS=3.70D-10 Max=3.23D-09
 LinEq1:  Iter= 14 NonCon=     0 RMS=5.86D-11 Max=4.25D-10
 Linear equations converged to 1.000D-10 1.000D-09 after    14 iterations.
 End of Minotr Frequency-dependent properties file   721 does not exist.
 End of Minotr Frequency-dependent properties file   722 does not exist.
   1 Symmetry operations used in ECPInt.
 ECPInt:  NShTT=     780 NPrTT=    3579 LenC2=     767 LenP2D=    2842.
 LDataN:  DoStor=T MaxTD1= 6 Len=  172
 Calling FoFJK, ICntrl=      2127 FMM=F ISym2X=0 I1Cent= 0 IOpClX= 0 NMat=1 NMatS=1 NMatT=0.
 ***** Axes restored to original set *****
 -------------------------------------------------------------------
 Center     Atomic                   Forces (Hartrees/Bohr)
 Number     Number              X              Y              Z
 -------------------------------------------------------------------
      1        6          -0.000529232   -0.000563172    0.000306316
      2        6           0.000618825    0.000761255   -0.000157673
      3        1           0.000226608    0.000084287   -0.000053938
      4        1           0.000012163    0.000017072    0.000136868
      5        1           0.000046383    0.000102005   -0.000018739
      6       50          -0.000076419    0.000102747   -0.000008062
      7       50          -0.000122404   -0.000340818   -0.000197692
      8       35          -0.000131859   -0.000083298    0.000006902
      9        9          -0.000610733   -0.000049618   -0.000015338
     10        1           0.000566669   -0.000030461    0.000001356
 -------------------------------------------------------------------
 Cartesian Forces:  Max     0.000761255 RMS     0.000298922

 GradGradGradGradGradGradGradGradGradGradGradGradGradGradGradGradGradGrad
 Berny optimization.
 Using GEDIIS/GDIIS optimizer.
 Internal  Forces:  Max     0.000793163 RMS     0.000279672
 Search for a local minimum.
 Step number   4 out of a maximum of   43
 All quantities printed in internal units (Hartrees-Bohrs-Radians)
 Mixed Optimization -- En-DIIS/RFO-DIIS
 Swaping is turned off.
 Update second derivatives using D2CorX and points    1    2    3    4
 DE= -4.95D-05 DEPred=-5.79D-05 R= 8.55D-01
 SS=  1.41D+00  RLast= 7.99D-02 DXNew= 8.4853D-01 2.3967D-01
 Trust test= 8.55D-01 RLast= 7.99D-02 DXMaxT set to 5.05D-01
     Eigenvalues ---    0.00244   0.00310   0.01657   0.02866   0.03063
     Eigenvalues ---    0.03083   0.04896   0.06413   0.10981   0.11665
     Eigenvalues ---    0.11924   0.12051   0.12129   0.12925   0.16002
     Eigenvalues ---    0.16006   0.16525   0.21789   0.23703   0.24322
     Eigenvalues ---    0.26307   0.37131   0.41021   0.619801000.00000
     Eigenvalues --- 1000.000001000.000001000.000001000.000001000.00000
     Eigenvalues --- 1000.000001000.000001000.00000
 En-DIIS/RFO-DIIS IScMMF=        0 using points:     4    3
 RFO step:  Lambda=-6.11835648D-06.
 DIIS coeffs:      0.88347      0.11653
 Iteration  1 RMS(Cart)=  0.02997052 RMS(Int)=  0.00046643
 Iteration  2 RMS(Cart)=  0.00048928 RMS(Int)=  0.00000127
 Iteration  3 RMS(Cart)=  0.00000011 RMS(Int)=  0.00000126
 Variable       Old X    -DE/DX   Delta X   Delta X   Delta X     New X
                                  (DIIS)     (GDIIS)  (Total)
    R1        2.58024  -0.00079   0.00021  -0.00168  -0.00147   2.57877
    R2        2.70131  -0.00058  -0.00142   0.00383   0.00242   2.70373
    R3        2.06386  -0.00042   0.00017  -0.00142  -0.00126   2.06261
    R4        4.14452  -0.00009   0.00031  -0.00160  -0.00129   4.14323
    R5        3.74154  -0.00005   0.00051  -0.00181  -0.00130   3.74024
    R6        3.30383  -0.00004   0.00053  -0.00189  -0.00136   3.30247
    R7        3.29406   0.00001   0.00046  -0.00131  -0.00084   3.29322
    R8        3.28638  -0.00005   0.00046  -0.00177  -0.00131   3.28506
    R9        5.20002   0.00024   0.00132  -0.00161  -0.00029   5.19973
    A1        2.16226   0.00011   0.00065  -0.00168  -0.00103   2.16123
    A2        2.18745   0.00034  -0.00132   0.00623   0.00491   2.19237
    A3        1.93346  -0.00045   0.00067  -0.00455  -0.00388   1.92958
    A4        2.13324  -0.00043   0.00046  -0.00301  -0.00256   2.13068
    A5        2.08149   0.00048   0.00004   0.00160   0.00163   2.08312
    A6        2.06821  -0.00006  -0.00049   0.00142   0.00094   2.06914
    A7        1.73992  -0.00040  -0.00098   0.00098   0.00000   1.73993
    A8        1.97550   0.00045  -0.00026   0.00250   0.00224   1.97774
    A9        2.02042   0.00014  -0.00121   0.00537   0.00416   2.02458
   A10        1.81689   0.00010  -0.00131   0.00397   0.00266   1.81955
   A11        1.92322  -0.00023   0.00030  -0.00276  -0.00247   1.92075
   A12        1.97139  -0.00020   0.00052  -0.00332  -0.00280   1.96859
    D1        3.11111   0.00006   0.00040   0.00068   0.00108   3.11219
    D2       -0.00626   0.00004   0.00020   0.00032   0.00051  -0.00574
    D3       -0.03552   0.00001   0.00042  -0.00073  -0.00032  -0.03584
    D4        3.13029   0.00000   0.00021  -0.00109  -0.00088   3.12941
    D5        0.12905  -0.00003   0.00411   0.00544   0.00955   0.13860
    D6        2.28558   0.00011   0.00194   0.01369   0.01563   2.30121
    D7       -3.03659  -0.00001   0.00432   0.00580   0.01012  -3.02647
    D8       -0.88006   0.00013   0.00216   0.01405   0.01620  -0.86386
    D9        3.10761  -0.00016  -0.00184  -0.04660  -0.04844   3.05917
   D10        1.08384  -0.00001  -0.00072  -0.04772  -0.04844   1.03540
   D11       -1.18228  -0.00025  -0.00411  -0.03982  -0.04393  -1.22622
   D12        3.07713  -0.00011  -0.00299  -0.04095  -0.04393   3.03320
         Item               Value     Threshold  Converged?
 Maximum Force            0.000793     0.000450     NO 
 RMS     Force            0.000280     0.000300     YES
 Maximum Displacement     0.100903     0.001800     NO 
 RMS     Displacement     0.029933     0.001200     NO 
 Predicted change in Energy=-1.816408D-05
 GradGradGradGradGradGradGradGradGradGradGradGradGradGradGradGradGradGrad

                          Input orientation:                          
 ---------------------------------------------------------------------
 Center     Atomic      Atomic             Coordinates (Angstroms)
 Number     Number       Type             X           Y           Z
 ---------------------------------------------------------------------
      1          6           0        2.209836    2.911512   -0.220063
      2          6           0        1.962642    1.639408    0.207546
      3          1           0       -0.985961    2.246837   -0.088830
      4          1           0       -2.145445   -2.111347   -0.168437
      5          1           0        0.513922   -2.788292   -0.026481
[...]
 Translational            0.889              2.981             43.551
 Rotational               0.889              2.981             32.501
 Vibrational             31.503             25.841             31.886
 Vibration     1          0.593              1.985              6.191
 Vibration     2          0.594              1.983              5.557
 Vibration     3          0.610              1.928              3.029
 Vibration     4          0.614              1.915              2.828
 Vibration     5          0.623              1.887              2.511
 Vibration     6          0.626              1.876              2.403
 Vibration     7          0.640              1.832              2.082
 Vibration     8          0.671              1.738              1.630
 Vibration     9          0.720              1.595              1.210
 Vibration    10          0.757              1.495              1.007
 Vibration    11          0.787              1.415              0.874
 Vibration    12          0.838              1.290              0.705
 Vibration    13          0.861              1.236              0.643
 Vibration    14          0.969              1.011              0.433
                       Q            Log10(Q)             Ln(Q)
 Total Bot       0.576121D-01         -1.239486         -2.854022
 Total V=0       0.332176D+19         18.521368         42.647026
 Vib (Bot)       0.753251D-16        -16.123060        -37.124718
 Vib (Bot)    1  0.828336D+01          0.918207          2.114249
 Vib (Bot)    2  0.601366D+01          0.779139          1.794034
 Vib (Bot)    3  0.163912D+01          0.214611          0.494159
 Vib (Bot)    4  0.147171D+01          0.167822          0.386424
 Vib (Bot)    5  0.123670D+01          0.092264          0.212445
 Vib (Bot)    6  0.116410D+01          0.065990          0.151947
 Vib (Bot)    7  0.967545D+00         -0.014329         -0.032993
 Vib (Bot)    8  0.731955D+00         -0.135516         -0.312036
 Vib (Bot)    9  0.545254D+00         -0.263401         -0.606503
 Vib (Bot)   10  0.462856D+00         -0.334554         -0.770339
 Vib (Bot)   11  0.411037D+00         -0.386119         -0.889073
 Vib (Bot)   12  0.346587D+00         -0.460187         -1.059620
 Vib (Bot)   13  0.322827D+00         -0.491030         -1.130637
 Vib (Bot)   14  0.242456D+00         -0.615366         -1.416934
 Vib (V=0)       0.434304D+04          3.637794          8.376330
 Vib (V=0)    1  0.879844D+01          0.944406          2.174574
 Vib (V=0)    2  0.653441D+01          0.815207          1.877082
 Vib (V=0)    3  0.221368D+01          0.345116          0.794658
 Vib (V=0)    4  0.205433D+01          0.312669          0.719948
 Vib (V=0)    5  0.183395D+01          0.263387          0.606472
 Vib (V=0)    6  0.176694D+01          0.247221          0.569247
 Vib (V=0)    7  0.158910D+01          0.201152          0.463169
 Vib (V=0)    8  0.138643D+01          0.141898          0.326732
 Vib (V=0)    9  0.123980D+01          0.093351          0.214949
 Vib (V=0)   10  0.118135D+01          0.072378          0.166657
 Vib (V=0)   11  0.114726D+01          0.059663          0.137380
 Vib (V=0)   12  0.110838D+01          0.044688          0.102897
 Vib (V=0)   13  0.109516D+01          0.039478          0.090902
 Vib (V=0)   14  0.105568D+01          0.023534          0.054189
 Electronic      0.100000D+01          0.000000          0.000000
 Translational   0.270440D+09          8.432071         19.415561
 Rotational      0.282815D+07          6.451503         14.855135
 ***** Axes restored to original set *****
 -------------------------------------------------------------------
 Center     Atomic                   Forces (Hartrees/Bohr)
 Number     Number              X              Y              Z
 -------------------------------------------------------------------
      1        6           0.000045657    0.000028453    0.000002781
      2        6          -0.000045767   -0.000008125    0.000016585
      3        1          -0.000003514   -0.000006249    0.000002163
      4        1           0.000001344    0.000006101   -0.000004165
      5        1           0.000002767    0.000006149   -0.000003999
      6       50           0.000020686    0.000000836   -0.000017525
      7       50          -0.000011129   -0.000009335    0.000012454
      8       35           0.000013246    0.000003228   -0.000004253
      9        9          -0.000018604   -0.000014061   -0.000000462
     10        1          -0.000004686   -0.000006997   -0.000003578
 -------------------------------------------------------------------
 Cartesian Forces:  Max     0.000045767 RMS     0.000015753

 GradGradGradGradGradGradGradGradGradGradGradGradGradGradGradGradGradGrad
 Berny optimization.
 Internal  Forces:  Max     0.000031926 RMS     0.000011150
 Search for a local minimum.
 Step number   1 out of a maximum of    2
 All quantities printed in internal units (Hartrees-Bohrs-Radians)
 Second derivative matrix not updated -- analytic derivatives used.
     Eigenvalues ---    0.00344   0.00655   0.01314   0.01665   0.02973
     Eigenvalues ---    0.03333   0.04202   0.04553   0.06673   0.06754
     Eigenvalues ---    0.07391   0.08955   0.10945   0.11563   0.12467
     Eigenvalues ---    0.12647   0.12960   0.13044   0.15552   0.19786
     Eigenvalues ---    0.20831   0.31245   0.36843   0.557801000.00000
     Eigenvalues --- 1000.000001000.000001000.000001000.000001000.00000
     Eigenvalues --- 1000.000001000.000001000.00000
 Angle between quadratic step and forces=  46.74 degrees.
 Linear search not attempted -- first point.
 Iteration  1 RMS(Cart)=  0.00057344 RMS(Int)=  0.00000012
 Iteration  2 RMS(Cart)=  0.00000019 RMS(Int)=  0.00000003
 Variable       Old X    -DE/DX   Delta X   Delta X   Delta X     New X
                                 (Linear)    (Quad)   (Total)
    R1        2.57861   0.00001   0.00000   0.00004   0.00004   2.57866
    R2        2.70025  -0.00002   0.00000  -0.00012  -0.00012   2.70013
    R3        2.06270   0.00000   0.00000   0.00000   0.00000   2.06271
    R4        4.14448  -0.00001   0.00000  -0.00020  -0.00020   4.14429
    R5        3.73986   0.00001   0.00000   0.00011   0.00011   3.73997
    R6        3.30344   0.00000   0.00000  -0.00005  -0.00005   3.30339
    R7        3.29437   0.00000   0.00000  -0.00005  -0.00005   3.29432
    R8        3.28685   0.00000   0.00000  -0.00005  -0.00005   3.28679
    R9        5.20410   0.00000   0.00000  -0.00019  -0.00019   5.20391
    A1        2.16277   0.00000   0.00000   0.00000   0.00000   2.16276
    A2        2.19023  -0.00001   0.00000  -0.00008  -0.00008   2.19015
    A3        1.93018   0.00001   0.00000   0.00008   0.00008   1.93026
    A4        2.12848   0.00002   0.00000   0.00016   0.00016   2.12864
    A5        2.08467  -0.00003   0.00000  -0.00020  -0.00020   2.08447
    A6        2.06978   0.00001   0.00000   0.00004   0.00004   2.06983
    A7        1.73422   0.00000   0.00000   0.00015   0.00015   1.73437
    A8        1.98098   0.00003   0.00000   0.00062   0.00062   1.98160
    A9        2.03038  -0.00001   0.00000  -0.00015  -0.00015   2.03023
   A10        1.81689   0.00001   0.00000   0.00024   0.00024   1.81713
   A11        1.91848   0.00000   0.00000  -0.00025  -0.00025   1.91823
   A12        1.96142   0.00000   0.00000  -0.00002  -0.00002   1.96140
    D1        3.11104   0.00001   0.00000   0.00018   0.00018   3.11122
    D2       -0.00575   0.00000   0.00000   0.00002   0.00002  -0.00573
    D3       -0.03632   0.00000   0.00000  -0.00002  -0.00002  -0.03635
    D4        3.13007  -0.00001   0.00000  -0.00018  -0.00018   3.12989
    D5        0.13782   0.00000   0.00000  -0.00011  -0.00011   0.13771
    D6        2.30535   0.00000   0.00000   0.00011   0.00011   2.30546
    D7       -3.02837   0.00000   0.00000   0.00005   0.00005  -3.02832
    D8       -0.86084   0.00000   0.00000   0.00027   0.00027  -0.86057
    D9        3.08382   0.00000   0.00000   0.00007   0.00007   3.08389
   D10        1.06912  -0.00001   0.00000  -0.00006  -0.00006   1.06906
   D11       -1.20263   0.00001   0.00000   0.00062   0.00062  -1.20201
   D12        3.06585   0.00000   0.00000   0.00050   0.00050   3.06635
         Item               Value     Threshold  Converged?
 Maximum Force            0.000032     0.000450     YES
 RMS     Force            0.000011     0.000300     YES
 Maximum Displacement     0.001165     0.001800     YES
 RMS     Displacement     0.000573     0.001200     YES
 Predicted change in Energy=-2.732908D-08
 Optimization completed.
    -- Stationary point found.
                           ----------------------------
                           !   Optimized Parameters   !
                           ! (Angstroms and Degrees)  !
 --------------------------                            --------------------------
 ! Name  Definition              Value          Derivative Info.                !
 --------------------------------------------------------------------------------
 ! R1    R(1,2)                  1.3645         -DE/DX =    0.0                 !
 ! R2    R(1,9)                  1.4289         -DE/DX =    0.0                 !
 ! R3    R(1,10)                 1.0915         -DE/DX =    0.0                 !
 ! R4    R(2,6)                  2.1932         -DE/DX =    0.0                 !
 ! R5    R(2,8)                  1.979          -DE/DX =    0.0                 !
 ! R6    R(3,6)                  1.7481         -DE/DX =    0.0                 !
 ! R7    R(4,7)                  1.7433         -DE/DX =    0.0                 !
 ! R8    R(5,7)                  1.7393         -DE/DX =    0.0                 !
 ! R9    R(6,7)                  2.7539         -DE/DX =    0.0                 !
 ! A1    A(2,1,9)              123.9174         -DE/DX =    0.0                 !
 ! A2    A(2,1,10)             125.4908         -DE/DX =    0.0                 !
 ! A3    A(9,1,10)             110.5911         -DE/DX =    0.0                 !
 ! A4    A(1,2,6)              121.9528         -DE/DX =    0.0                 !
 ! A5    A(1,2,8)              119.4427         -DE/DX =    0.0                 !
 ! A6    A(6,2,8)              118.5897         -DE/DX =    0.0                 !
 ! A7    A(2,6,3)               99.3633         -DE/DX =    0.0                 !
 ! A8    A(2,6,7)              113.5019         -DE/DX =    0.0                 !
 ! A9    A(3,6,7)              116.3324         -DE/DX =    0.0                 !
 ! A10   A(4,7,5)              104.1004         -DE/DX =    0.0                 !
 ! A11   A(4,7,6)              109.9207         -DE/DX =    0.0                 !
 ! A12   A(5,7,6)              112.3811         -DE/DX =    0.0                 !
 ! D1    D(9,1,2,6)            178.2494         -DE/DX =    0.0                 !
 ! D2    D(9,1,2,8)             -0.3296         -DE/DX =    0.0                 !
 ! D3    D(10,1,2,6)            -2.0812         -DE/DX =    0.0                 !
 ! D4    D(10,1,2,8)           179.3398         -DE/DX =    0.0                 !
 ! D5    D(1,2,6,3)              7.8967         -DE/DX =    0.0                 !
 ! D6    D(1,2,6,7)            132.0866         -DE/DX =    0.0                 !
 ! D7    D(8,2,6,3)           -173.5126         -DE/DX =    0.0                 !
 ! D8    D(8,2,6,7)            -49.3227         -DE/DX =    0.0                 !
 ! D9    D(2,6,7,4)            176.6898         -DE/DX =    0.0                 !
 ! D10   D(2,6,7,5)             61.2559         -DE/DX =    0.0                 !
 ! D11   D(3,6,7,4)            -68.9058         -DE/DX =    0.0                 !
 ! D12   D(3,6,7,5)            175.6604         -DE/DX =    0.0                 !
 --------------------------------------------------------------------------------
 GradGradGradGradGradGradGradGradGradGradGradGradGradGradGradGradGradGrad

 1\1\GINC-MALLOS28\Freq\RMP2-FC\SDD\C2H4Br1F1Sn2\MARLIN\25-Oct-2024\0\\
 #N Geom=AllCheck Guess=TCheck SCRF=Check GenChk RMP2(FC)/SDD Freq\\Tit
 le Card Required\\0,1\C,2.208001593,2.9153143181,-0.2188932755\C,1.969
 0998212,1.6395195183,0.2021224362\H,-0.9747426526,2.2455811268,-0.0804
 223674\H,-2.1530887758,-2.1009186465,-0.1966609553\H,0.4942053455,-2.8
 011438605,0.0113796409\Sn,-0.0636932768,0.8939945907,0.551299917\Sn,-0
 .5494244046,-1.5557545084,-0.6091754599\Br,3.4949551747,0.4285092906,0
 .5511960847\F,3.5147682579,3.455473042,-0.424754528\H,1.4440564576,3.6
 60105449,-0.4493836028\\Version=EM64L-G09RevA.01\State=1-A\HF=-196.999
 5672\MP2=-197.4126918\RMSD=7.018e-10\RMSF=1.575e-05\ZeroPoint=0.042961
 5\Thermal=0.0530352\Dipole=-1.3924166,-0.2572265,-0.0747502\DipoleDeri
 v=0.5526295,0.7185691,-0.2164067,0.4963503,0.8269713,-0.1355937,-0.136
 3853,-0.2433364,0.0902702,-0.0531565,-0.3617397,0.151671,-0.6970665,-0
 .529912,-0.0699907,0.3449291,0.2812525,-0.1982641,-0.343117,0.007243,-
 0.0111723,0.0955206,-0.4179582,0.0498862,-0.0099116,0.2943894,-0.02517
 53,-0.4069589,-0.1534713,-0.0206848,-0.1616479,-0.3105481,0.037414,0.1
 540699,0.272953,-0.0216846,-0.2302115,0.0482001,0.0059898,0.0617286,-0
 .4150092,0.0531274,0.0245396,0.323906,-0.0172645,1.0673522,0.3601725,0
 .0587176,0.3148411,0.8720764,-0.063123,-0.2470775,-0.5776128,0.1323922
 ,0.6434842,0.0824108,-0.0021954,0.0744235,0.7566086,-0.0869267,-0.1815
 162,-0.5925586,0.0869159,-0.3395691,0.1278336,-0.1007926,0.1255151,-0.
 1031551,0.0592881,-0.0374733,0.0304926,-0.0059045,-0.8896204,-0.811855
 4,0.1211082,-0.3957346,-0.7208971,0.0757917,0.105989,0.1431041,-0.2262
 123,-0.0008326,-0.0173627,0.0137652,0.0860697,0.0418235,0.0801267,-0.0
 171636,0.0674102,0.1849269\Polar=120.6447434,17.6711845,162.0777616,15
 .7544801,31.1245718,76.2307582\PG=C01 [X(C2H4Br1F1Sn2)]\NImag=0\\0.497
 71109,-0.05407057,0.73038331,0.00861862,-0.20706743,0.16640155,-0.0773
 3351,-0.04467884,0.01526045,0.27858609,-0.06479393,-0.43854962,0.13196
 402,0.06079685,0.55222756,0.02280150,0.13096632,-0.08339058,-0.0283146
 0,-0.16360057,0.10765654,0.00078436,0.00094871,-0.00053197,-0.00331607
 ,0.00712306,-0.00364603,0.04414871,0.00075044,-0.00109762,0.00017868,-
 0.00127936,0.00210315,0.00002472,-0.04563819,0.07949015,-0.00027833,0.
 00013095,-0.00033134,0.00148553,-0.00026303,0.00046526,0.02134525,-0.0
 3200690,0.02071698,0.00024207,0.00039571,-0.00016636,0.00015227,-0.000
 31593,-0.00026010,0.00009718,-0.00035475,-0.00019370,0.11100311,-0.000
 15675,0.00041210,-0.00052087,0.00056972,-0.00185696,-0.00211124,0.0002
 6216,-0.00027157,-0.00096161,0.03293103,0.02324155,-0.00094344,-0.0005
 2713,0.00016942,0.00012108,-0.00123841,0.00019618,0.00007421,-0.000960
 91,-0.00125087,-0.02385015,-0.00962376,0.01179193,0.00028631,-0.000187
 21,-0.00002246,-0.00012002,0.00061169,-0.00023222,0.00010334,-0.000307
 57,-0.00078025,-0.00565569,0.00719909,-0.00403423,0.05581412,0.0001819
 0,0.00031077,-0.00027121,0.00014269,-0.00061847,-0.00078337,-0.0003410
 8,-0.00103875,-0.00216122,-0.00239332,0.00283918,-0.00004912,-0.050618
 85,0.07145458,-0.00014037,-0.00100893,0.00008202,-0.00004673,0.0003754
 7,-0.00176541,-0.00076027,-0.00208271,0.00012407,0.00267375,-0.0010663
 9,0.00079821,0.02482301,-0.03046126,0.01996675,-0.00810282,-0.00408812
 ,0.00235707,-0.09540526,-0.03373737,0.01914232,-0.03868476,0.04441171,
 -0.02364950,-0.00071687,-0.00388155,-0.00285619,0.00033387,0.00366120,
 0.00044642,0.15359981,-0.01530543,-0.00283844,0.00172632,-0.02978055,-
 0.03111822,0.00981174,0.03811941,-0.08321306,0.03881000,0.00190145,0.0
 0277300,-0.00157973,-0.00095952,0.00113196,-0.00315897,0.00355787,0.18
 596919,0.00424377,0.00067821,-0.00182872,0.01225055,0.00401953,-0.0154
 1741,-0.01780007,0.02754800,-0.02198442,0.00249227,0.00685400,0.001058
 49,0.00117510,0.00781253,0.00207399,0.00934204,-0.02432914,0.05066778,
 -0.00147481,0.00065609,-0.00064651,0.00033405,-0.00507964,-0.00202812,
 0.00065861,0.00323235,0.00137389,-0.10476301,-0.03634306,0.03090543,-0
 .05085687,0.05018028,-0.02781530,-0.00954724,-0.01008408,-0.00587022,0
 .16590541,0.00085523,-0.00030472,-0.00004922,-0.00017725,0.00209791,-0
 .00087705,-0.00039755,0.00208554,-0.00284875,-0.03190765,-0.02699624,0
 .01426846,0.04435489,-0.07413611,0.03719428,-0.01149487,-0.06636632,-0
 .02512054,-0.00231594,0.16276186,0.00168716,0.00202864,-0.00010001,0.0
 0072188,0.00317859,0.00262565,0.00093262,0.00788595,0.00181745,0.01922
 491,0.00687445,-0.01289051,-0.02098314,0.02572705,-0.02140757,-0.00377
 992,-0.02401044,-0.01887666,0.00335943,-0.02219675,0.04958171,-0.01532
 360,0.00107920,0.00033583,-0.08321634,0.05876496,-0.01642142,-0.003270
 14,-0.00094884,0.00059087,-0.00002074,-0.00007863,0.00027125,0.0000526
 9,-0.00037549,0.00022102,-0.00765645,0.01253397,-0.00423346,0.00007397
 ,0.00009867,-0.00064302,0.10298658,0.03277985,-0.01758696,0.00650834,0
 .03887596,-0.06090213,0.01323372,-0.00001018,0.00066706,-0.00020602,-0
 .00009784,0.00010238,-0.00003877,-0.00015871,0.00012180,-0.00016434,-0
 .00141889,-0.00223907,0.00131267,0.00026367,-0.00015583,0.00021146,-0.
 06836961,0.08033901,-0.01000936,0.00715682,0.00313315,-0.01070696,0.01
 293267,-0.02008403,0.00007593,-0.00005915,0.00056544,-0.00000582,0.000
 07763,0.00002515,0.00003158,0.00001796,-0.00002268,0.00083379,0.000572
 96,0.00070246,0.00011731,0.00003007,-0.00007060,0.01920518,-0.02140634
 ,0.01471898,-0.21085013,-0.05138081,0.02145980,-0.02597024,-0.01143226
 ,0.00533369,-0.00057873,0.00002098,0.00020682,-0.00031706,-0.00051269,
 0.00030594,0.00005148,-0.00045954,0.00061848,0.00631539,0.00104314,-0.
 00212394,-0.00036357,0.00104598,-0.00053397,0.00474556,0.00100505,-0.0
 0052411,0.25840590,-0.05208256,-0.07455662,0.01561614,-0.04250429,-0.0
 1422123,0.01036475,-0.00040523,0.00064545,-0.00007911,-0.00018195,-0.0
 0025281,-0.00010190,0.00009226,-0.00015453,0.00047076,0.00338564,-0.00
 198348,0.00040322,-0.00044060,0.00107770,0.00002183,-0.00208790,0.0004
 6960,-0.00161365,0.08337914,0.08279823,0.02122650,0.01530259,-0.037596
 71,0.01549112,0.00931906,0.00918002,0.00030949,-0.00018312,0.00006638,
 0.00012873,0.00064305,0.00012027,0.00001061,0.00031324,0.00019088,-0.0
 0225717,0.00092243,0.00433051,0.00070393,-0.00030115,-0.00080255,0.000
 23157,-0.00167862,-0.00430302,-0.03307881,-0.02412126,0.02444730,-0.18
 593897,0.15132585,-0.04666448,0.00628903,-0.01193742,0.00362498,0.0000
 5749,0.00011324,-0.00010058,-0.00002125,0.00001068,0.00000610,-0.00000
 923,0.00002222,-0.00002001,-0.00013567,-0.00102628,0.00052396,0.000033
 45,-0.00006150,0.00001405,0.00162848,-0.00286930,0.00098247,-0.0314386
 0,0.01084549,-0.00276598,0.20953525,0.15184182,-0.19617222,0.05191523,
 0.01803506,-0.00916199,0.00297098,0.00033890,0.00062964,-0.00041430,0.
 00002327,0.00000937,-0.00014873,-0.00002608,0.00008957,-0.00009792,-0.
 00039561,-0.00211557,0.00082152,-0.00006907,-0.00006380,0.00027923,-0.
 00061632,-0.00081585,0.00229103,-0.02270899,0.00617769,-0.00021620,-0.
 14642298,0.20142315,-0.04720605,0.05233995,-0.04653877,-0.00626233,0.0
 0331266,0.00053378,0.00000084,-0.00034455,-0.00018895,-0.00004353,-0.0
 0016525,-0.00001828,0.00001200,-0.00014458,-0.00004025,0.00042115,0.00
 123482,-0.00072601,-0.00009983,-0.00009935,0.00012308,0.00044219,0.002
 22790,0.00533516,0.00833609,-0.00096077,0.00436691,0.04439948,-0.05740
 083,0.03715333\\-0.00004566,-0.00002845,-0.00000278,0.00004577,0.00000
 812,-0.00001658,0.00000351,0.00000625,-0.00000216,-0.00000134,-0.00000
 610,0.00000417,-0.00000277,-0.00000615,0.00000400,-0.00002069,-0.00000
 084,0.00001753,0.00001113,0.00000934,-0.00001245,-0.00001325,-0.000003
 23,0.00000425,0.00001860,0.00001406,0.00000046,0.00000469,0.00000700,0
 .00000358\\\@


 JUST WHEN YOU THINK YOU'VE GOT THE WORLD ON A STRING,
 YOU FIND OUT IT'S YOUR LEASH.
 Job cpu time:  0 days  0 hours  5 minutes 14.5 seconds.
 File lengths (MBytes):  RWF=    197 Int=      0 D2E=      0 Chk=      2 Scr=      1
 Normal termination of Gaussian 09 at Fri Oct 25 10:52:58 2024.
